Program Version,EnergyPlus, Version 9.1.0-08d2e308bb, YMD=2019.12.31 12:51
1,5,Environment Title[],Latitude[deg],Longitude[deg],Time Zone[],Elevation[m]
2,8,Day of Simulation[],Month[],Day of Month[],DST Indicator[1=yes 0=no],Hour[],StartMinute[],EndMinute[],DayType
3,5,Cumulative Day of Simulation[],Month[],Day of Month[],DST Indicator[1=yes 0=no],DayType  ! When Daily Report Variables Requested
4,2,Cumulative Days of Simulation[],Month[]  ! When Monthly Report Variables Requested
5,1,Cumulative Days of Simulation[] ! When Run Period Report Variables Requested
6,1,Calendar Year of Simulation[] ! When Annual Report Variables Requested
7,9,Environment,Site Outdoor Air Drybulb Temperature [C] !Monthly [Value,Min,Day,Hour,Minute,Max,Day,Hour,Minute]
8,1,Environment,Site Outdoor Air Wetbulb Temperature [C] !TimeStep
395,7,BUILDING STORY 1 THERMALZONE,Zone Air Relative Humidity [%] !Daily [Value,Min,Hour,Minute,Max,Hour,Minute]
789,1,Heating:Electricity [J] !Hourly
764,1,Heating:Gas [J] !Hourly
649,1,Cooling:Electricity [J] !Hourly
47,1,InteriorLights:Electricity [J] !Hourly
662,1,ExteriorLights:Electricity [J] !Hourly
87,1,InteriorEquipment:Electricity [J] !Hourly
561,1,Fans:Electricity [J] !Hourly
814,1,Pumps:Electricity [J] !Hourly
186,1,WaterSystems:Electricity [J] !Hourly
237,1,WaterSystems:Water [m3] !Hourly
11,1,Electricity:Facility [J] !Hourly
740,1,Gas:Facility [J] !Hourly
213,1,Water:Facility [m3] !Hourly
10,1,Electricity:Facility [J] !TimeStep
739,1,Gas:Facility [J] !TimeStep
End of Data Dictionary
1,RUN PERIOD 1,  42.93, -78.73,  -5.00, 215.00
2,1, 1, 1, 0, 1, 0.00,60.00,Monday
8,-1.1802458087361237
10,24309978.549502464
739,62408686.2870315
2,1, 1, 1, 0, 1, 0.00,60.00,Monday
11,24309978.549502464
47,2165818.5697692076
87,7891898.800875686
186,0.0
213,0.008430869125257666
237,0.008430869125257666
561,9081685.419467956
649,0.0
662,5081520.522436451
740,62408686.2870315
764,62408686.2870315
789,0.0
814,89055.23695316025
2,1, 1, 1, 0, 2, 0.00,60.00,Monday
8,-1.1802458087361237
10,23632257.671608297
739,66265432.93453117
2,1, 1, 1, 0, 2, 0.00,60.00,Monday
11,23632257.671608297
47,2165818.5697692076
87,7206635.0874354219
186,0.0
213,0.004215434562628833
237,0.004215434562628833
561,9081685.419467956
649,0.0
662,5081520.522436451
740,66265432.93453117
764,66265432.93453117
789,0.0
814,96598.07249925811
2,1, 1, 1, 0, 3, 0.00,60.00,Monday
8,-1.87387394903547
10,23283905.59349153
739,63297122.37254316
2,1, 1, 1, 0, 3, 0.00,60.00,Monday
11,23283905.59349153
47,2165818.5697692076
87,6864003.230715291
186,0.0
213,0.0010538586406572083
237,0.0010538586406572083
561,9081685.419467956
649,0.0
662,5081520.522436451
740,63297122.37254316
764,63297122.37254316
789,0.0
814,90877.85110262182
2,1, 1, 1, 0, 4, 0.00,60.00,Monday
8,-1.5103272887722317
10,23098328.334564695
739,56161594.5803145
2,1, 1, 1, 0, 4, 0.00,60.00,Monday
11,23098328.334564695
47,2165818.5697692076
87,6692687.302355225
186,0.0
213,0.0010538586406572083
237,0.0010538586406572083
561,9081685.419467954
649,0.0
662,5081520.522436451
740,56161594.5803145
764,56161594.5803145
789,0.0
814,76616.520535856
2,1, 1, 1, 0, 5, 0.00,60.00,Monday
8,-1.665952381653312
10,23947665.114777589
739,62317295.98826561
2,1, 1, 1, 0, 5, 0.00,60.00,Monday
11,23947665.114777589
47,3004256.443909223
87,6692687.302355225
186,0.0
213,0.004215434562628833
237,0.004215434562628833
561,9081685.419467956
649,0.0
662,5081520.522436451
740,62317295.98826561
764,62317295.98826561
789,0.0
814,87515.42660872916
2,1, 1, 1, 0, 6, 0.00,60.00,Monday
8,-1.3944780310032846
10,26254799.963498676
739,53058895.82453974
2,1, 1, 1, 0, 6, 0.00,60.00,Monday
11,26254799.963498676
47,4471522.769962333
87,7549266.944155554
186,0.0
213,0.028454183297744626
237,0.028454183297744626
561,9081685.419467956
649,0.0
662,5081520.522436451
740,53058895.82453974
764,53058895.82453974
789,0.0
814,70804.30747638126
2,1, 1, 1, 0, 7, 0.00,60.00,Monday
8,-1.1805889590406258
10,59960732.81297956
739,55582430.22177119
2,1, 1, 1, 0, 7, 0.00,60.00,Monday
11,59960732.81297956
47,4681132.229235721
87,9433742.156116279
186,28552906.78810926
213,0.09906271222177758
237,0.09906271222177758
561,9081685.419467956
649,0.0
662,8136915.988582432
740,55582430.22177119
764,55582430.22177119
789,0.0
814,74350.23146790428
2,1, 1, 1, 0, 8, 0.00,60.00,Monday
8,-1.3944780310032846
10,48108204.742359418
739,56266857.85816774
2,1, 1, 1, 0, 8, 0.00,60.00,Monday
11,48108204.742359418
47,4471522.769962333
87,11412326.289878104
186,14929914.197820815
213,0.10538586406572084
237,0.10538586406572084
561,9081685.419467956
649,0.0
662,8136915.988582432
740,56266857.85816774
764,56266857.85816774
789,0.0
814,75840.0766477784
2,1, 1, 1, 0, 9, 0.00,60.00,Monday
8,-1.665952381653312
10,52807559.73908361
739,57013295.4276071
2,1, 1, 1, 0, 9, 0.00,60.00,Monday
11,52807559.73908361
47,3711796.9350589818
87,11860433.164711995
186,28076401.703901277
213,0.101170429503092
237,0.101170429503092
561,9081685.419467956
649,0.0
662,0.0
740,57013295.4276071
764,57013295.4276071
789,0.0
814,77242.51594340499
2,1, 1, 1, 0,10, 0.00,60.00,Monday
8,-1.1802458087361237
10,38530171.123090717
739,51268496.45642749
2,1, 1, 1, 0,10, 0.00,60.00,Monday
11,38530171.123090717
47,3292577.9794657409
87,12031749.093072063
186,14057181.428508958
213,0.0885241258152055
237,0.0885241258152055
561,9081685.419467956
649,0.0
662,0.0
740,51268496.45642749
764,51268496.45642749
789,0.0
814,66977.20257600003
2,1, 1, 1, 0,11, 0.00,60.00,Monday
8,-0.9849379844004382
10,52604087.76292792
739,50444053.682491097
2,1, 1, 1, 0,11, 0.00,60.00,Monday
11,52604087.76292792
47,3292577.9794657409
87,12374380.94979219
186,27790451.155462769
213,0.08009325668994784
237,0.08009325668994784
561,9081685.419467956
649,0.0
662,0.0
740,50444053.682491097
764,50444053.682491097
789,0.0
814,64992.25873926347
2,1, 1, 1, 0,12, 0.00,60.00,Monday
8,-0.818433687998716
10,38568358.074077758
739,50055013.896269667
2,1, 1, 1, 0,12, 0.00,60.00,Monday
11,38568358.074077758
47,3292577.9794657409
87,12545696.878152257
186,13584196.758748673
213,0.0642853770800897
237,0.0642853770800897
561,9081685.419467956
649,0.0
662,0.0
740,50055013.896269667
764,50055013.896269667
789,0.0
814,64201.03824313104
2,1, 1, 1, 0,13, 0.00,60.00,Monday
8,-0.598194072481827
10,29720466.250599479
739,43785165.93178815
2,1, 1, 1, 0,13, 0.00,60.00,Monday
11,29720466.250599479
47,3194308.4668060524
87,12341166.03621533
186,5049559.887014884
213,0.05585450795483204
237,0.05585450795483204
561,9081685.419467956
649,0.0
662,0.0
740,43785165.93178815
764,43785165.93178815
789,0.0
814,53746.441095253715
2,1, 1, 1, 0,14, 0.00,60.00,Monday
8,-0.2717280594017997
10,32599353.57278052
739,43911088.54946154
2,1, 1, 1, 0,14, 0.00,60.00,Monday
11,32599353.57278052
47,3292577.9794657409
87,11860433.164711995
186,8311320.332940427
213,0.04953135611088879
237,0.04953135611088879
561,9081685.419467956
649,0.0
662,0.0
740,43911088.54946154
764,43911088.54946154
789,0.0
814,53336.67619440318
2,1, 1, 1, 0,15, 0.00,60.00,Monday
8,-0.04571975547003023
10,37328013.89541131
739,44440657.5426326
2,1, 1, 1, 0,15, 0.00,60.00,Monday
11,37328013.89541131
47,3292577.9794657409
87,11689117.23635193
186,13210487.423576007
213,0.04320820426694554
237,0.04320820426694554
561,9081685.419467954
649,0.0
662,0.0
740,44440657.5426326
764,44440657.5426326
789,0.0
814,54145.836549681924
2,1, 1, 1, 0,16, 0.00,60.00,Monday
8,-0.04535544602759805
10,38587663.2021845
739,49027658.577228929
2,1, 1, 1, 0,16, 0.00,60.00,Monday
11,38587663.2021845
47,3921406.4313788355
87,12203065.021432128
186,13319748.243350512
213,0.04953135611088879
237,0.04953135611088879
561,9081685.419467956
649,0.0
662,0.0
740,49027658.577228929
764,49027658.577228929
789,0.0
814,61758.08655506479
2,1, 1, 1, 0,17, 0.00,60.00,Monday
8,-0.04535544602759805
10,42263253.08800805
739,49738858.40292854
2,1, 1, 1, 0,17, 0.00,60.00,Monday
11,42263253.08800805
47,5388672.720385479
87,14258856.161752917
186,13470514.84878642
213,0.05796222523614646
237,0.05796222523614646
561,9081685.419467956
649,0.0
662,0.0
740,49738858.40292854
764,49738858.40292854
789,0.0
814,63523.93761528295
2,1, 1, 1, 0,18, 0.00,60.00,Monday
8,-0.4337098548147795
10,54456835.87003382
739,49987581.84287685
2,1, 1, 1, 0,18, 0.00,60.00,Monday
11,54456835.87003382
47,5938789.058968977
87,17408383.782480409
186,13827056.384954913
213,0.0769316807679762
237,0.0769316807679762
561,9081685.419467954
649,0.0
662,8136915.988582432
740,49987581.84287685
764,49987581.84287685
789,0.0
814,64005.23557913601
2,1, 1, 1, 0,19, 0.00,60.00,Monday
8,-1.0213911744465183
10,56109806.30357719
739,54110249.83176858
2,1, 1, 1, 0,19, 0.00,60.00,Monday
11,56109806.30357719
47,7406055.385022086
87,17314274.860679307
186,14099695.497770684
213,0.09063184309651992
237,0.09063184309651992
561,9081685.419467956
649,0.0
662,8136915.988582432
740,54110249.83176858
764,54110249.83176858
789,0.0
814,71179.15205472891
2,1, 1, 1, 0,20, 0.00,60.00,Monday
8,-1.1809288569695527
10,69898625.28108615
739,53276934.18634236
2,1, 1, 1, 0,20, 0.00,60.00,Monday
11,69898625.28108615
47,8454102.755481959
87,16115063.362158845
186,28040705.986094875
213,0.08641640853389109
237,0.08641640853389109
561,9081685.419467956
649,0.0
662,8136915.988582432
740,53276934.18634236
764,53276934.18634236
789,0.0
814,70151.76930008999
2,1, 1, 1, 0,21, 0.00,60.00,Monday
8,-1.5108130242800387
10,55038162.10112539
739,52552479.784699339
2,1, 1, 1, 0,21, 0.00,60.00,Monday
11,55038162.10112539
47,8454102.755481959
87,15429799.64871858
186,13866941.320068876
213,0.07903939804929063
237,0.07903939804929063
561,9081685.419467956
649,0.0
662,8136915.988582432
740,52552479.784699339
764,52552479.784699339
789,0.0
814,68716.96880559284
2,1, 1, 1, 0,22, 0.00,60.00,Monday
8,-1.6662902470607773
10,51984072.53129316
739,55686484.99593977
2,1, 1, 1, 0,22, 0.00,60.00,Monday
11,51984072.53129316
47,6358008.014562218
87,14744535.935278317
186,13588682.066059018
213,0.0642853770800897
237,0.0642853770800897
561,9081685.419467956
649,0.0
662,8136915.988582432
740,55686484.99593977
764,55686484.99593977
789,0.0
814,74245.10734322385
2,1, 1, 1, 0,23, 0.00,60.00,Monday
8,-1.874803504688023
10,47350900.11366614
739,64096587.5385876
2,1, 1, 1, 0,23, 0.00,60.00,Monday
11,47350900.11366614
47,4261913.273642479
87,12346112.938237396
186,13433394.426562254
213,0.05585450795483204
237,0.05585450795483204
561,9081685.419467956
649,0.0
662,8136915.988582432
740,64096587.5385876
764,64096587.5385876
789,0.0
814,90878.06717362658
2,1, 1, 1, 0,24, 0.00,60.00,Monday
8,-1.665952381653312
10,30226967.007544679
739,65380799.72228564
2,1, 1, 1, 0,24, 0.00,60.00,Monday
11,30226967.007544679
47,2794646.9846358366
87,10119005.86955654
186,0.0
213,0.030561900579059038
237,0.030561900579059038
561,9081685.419467956
649,0.0
662,8136915.988582432
740,65380799.72228564
764,65380799.72228564
789,0.0
814,94712.74530191366
3,1, 1, 1, 0,Monday
395,21.89924160379722,21.376854184830955,13,60,22.212176087316104, 7,60
2,2, 1, 2, 0, 1, 0.00,60.00,Tuesday
8,-2.450886200756528
10,36940635.03185358
739,65238726.913073267
2,2, 1, 2, 0, 1, 0.00,60.00,Tuesday
11,36940635.03185358
47,2165818.5697692076
87,7891898.800875686
186,12625177.989068304
213,0.008430869125257666
237,0.008430869125257666
561,9081685.419467956
649,0.0
662,5081520.522436451
740,65238726.913073267
764,65238726.913073267
789,0.0
814,94533.73023596769
2,2, 1, 2, 0, 2, 0.00,60.00,Tuesday
8,-2.248902511226617
10,23653390.63532383
739,75922238.0121943
2,2, 1, 2, 0, 2, 0.00,60.00,Tuesday
11,23653390.63532383
47,2165818.5697692076
87,7206635.0874354219
186,0.0
213,0.004215434562628833
237,0.004215434562628833
561,9081685.419467956
649,0.0
662,5081520.522436451
740,75922238.0121943
764,75922238.0121943
789,0.0
814,117731.03621479297
2,2, 1, 2, 0, 3, 0.00,60.00,Tuesday
8,-2.248902511226617
10,23301590.386868489
739,71141310.55026548
2,2, 1, 2, 0, 3, 0.00,60.00,Tuesday
11,23301590.386868489
47,2165818.5697692076
87,6864003.230715291
186,0.0
213,0.0010538586406572083
237,0.0010538586406572083
561,9081685.419467956
649,0.0
662,5081520.522436451
740,71141310.55026548
764,71141310.55026548
789,0.0
814,108562.64447958206
2,2, 1, 2, 0, 4, 0.00,60.00,Tuesday
8,-1.665952381653312
10,23127544.536173896
739,70076369.54806274
2,2, 1, 2, 0, 4, 0.00,60.00,Tuesday
11,23127544.536173896
47,2165818.5697692076
87,6692687.302355225
186,0.0
213,0.0010538586406572083
237,0.0010538586406572083
561,9081685.419467956
649,0.0
662,5081520.522436451
740,70076369.54806274
764,70076369.54806274
789,0.0
814,105832.72214505518
2,2, 1, 2, 0, 5, 0.00,60.00,Tuesday
8,-2.8216230582487005
10,23961878.835276259
739,68165421.04260083
2,2, 1, 2, 0, 5, 0.00,60.00,Tuesday
11,23961878.835276259
47,3004256.443909223
87,6692687.302355225
186,0.0
213,0.004215434562628833
237,0.004215434562628833
561,9081685.419467956
649,0.0
662,5081520.522436451
740,68165421.04260083
764,68165421.04260083
789,0.0
814,101729.14710740131
2,2, 1, 2, 0, 6, 0.00,60.00,Tuesday
8,-1.665952381653312
10,26280896.418303905
739,66062481.82916292
2,2, 1, 2, 0, 6, 0.00,60.00,Tuesday
11,26280896.418303905
47,4471522.769962333
87,7549266.944155554
186,0.0
213,0.028454183297744626
237,0.028454183297744626
561,9081685.419467956
649,0.0
662,5081520.522436451
740,66062481.82916292
764,66062481.82916292
789,0.0
814,96900.76228160919
2,2, 1, 2, 0, 7, 0.00,60.00,Tuesday
8,-1.665952381653312
10,59985277.5079081
739,65752597.24774398
2,2, 1, 2, 0, 7, 0.00,60.00,Tuesday
11,59985277.5079081
47,4681132.229235721
87,9433742.156116279
186,28555898.194766128
213,0.09906271222177758
237,0.09906271222177758
561,9081685.419467956
649,0.0
662,8136915.988582432
740,65752597.24774398
764,65752597.24774398
789,0.0
814,95903.51973958168
2,2, 1, 2, 0, 8, 0.00,60.00,Tuesday
8,-1.66561355779768
10,47559352.70942673
739,63379355.47404828
2,2, 1, 2, 0, 8, 0.00,60.00,Tuesday
11,47559352.70942673
47,4471522.769962333
87,11412326.289878104
186,14365932.2946341
213,0.10538586406572084
237,0.10538586406572084
561,9081685.419467956
649,0.0
662,8136915.988582432
740,63379355.47404828
764,63379355.47404828
789,0.0
814,90969.94690181119
2,2, 1, 2, 0, 9, 0.00,60.00,Tuesday
8,-1.66561355779768
10,53386195.70677701
739,61892522.26014498
2,2, 1, 2, 0, 9, 0.00,60.00,Tuesday
11,53386195.70677701
47,3711796.9350589818
87,11860433.164711995
186,28644616.111042426
213,0.101170429503092
237,0.101170429503092
561,9081685.419467956
649,0.0
662,0.0
740,61892522.26014498
764,61892522.26014498
789,0.0
814,87664.07649565183
2,2, 1, 2, 0,10, 0.00,60.00,Tuesday
8,-1.1802458087361237
10,38546644.00604887
739,59189196.88471597
2,2, 1, 2, 0,10, 0.00,60.00,Tuesday
11,38546644.00604887
47,3292577.9794657409
87,12031749.093072063
186,14058372.464392323
213,0.0885241258152055
237,0.0885241258152055
561,9081685.419467956
649,0.0
662,0.0
740,59189196.88471597
764,59189196.88471597
789,0.0
814,82259.04965078934
2,2, 1, 2, 0,11, 0.00,60.00,Tuesday
8,-1.1799047350000767
10,42961934.34937844
739,54820195.66196401
2,2, 1, 2, 0,11, 0.00,60.00,Tuesday
11,42961934.34937844
47,3292577.9794657409
87,12374380.94979219
186,18139578.732827486
213,0.08009325668994784
237,0.08009325668994784
561,9081685.419467956
649,0.0
662,0.0
740,54820195.66196401
764,54820195.66196401
789,0.0
814,73711.26782507
2,2, 1, 2, 0,12, 0.00,60.00,Tuesday
8,-0.817959937909318
10,43176566.13284767
739,48005844.83273352
2,2, 1, 2, 0,12, 0.00,60.00,Tuesday
11,43176566.13284767
47,3292577.9794657409
87,12545696.878152257
186,18195343.750761309
213,0.0642853770800897
237,0.0642853770800897
561,9081685.419467956
649,0.0
662,0.0
740,48005844.83273352
764,48005844.83273352
789,0.0
814,61262.10500040857
2,2, 1, 2, 0,13, 0.00,60.00,Tuesday
8,-0.9843616670581066
10,29458372.459617076
739,47702890.9544888
2,2, 1, 2, 0,13, 0.00,60.00,Tuesday
11,29458372.459617076
47,3194308.4668060524
87,12341166.03621533
186,4781240.051270693
213,0.05585450795483204
237,0.05585450795483204
561,9081685.419467956
649,0.0
662,0.0
740,47702890.9544888
764,47702890.9544888
789,0.0
814,59972.48585704135
2,2, 1, 2, 0,14, 0.00,60.00,Tuesday
8,-0.817959937909318
10,37623274.996584098
739,49610568.24914533
2,2, 1, 2, 0,14, 0.00,60.00,Tuesday
11,37623274.996584098
47,3292577.9794657409
87,11860433.164711995
186,13325499.793799608
213,0.04953135611088879
237,0.04953135611088879
561,9081685.419467956
649,0.0
662,0.0
740,49610568.24914533
764,49610568.24914533
789,0.0
814,63078.63913879813
2,2, 1, 2, 0,15, 0.00,60.00,Tuesday
8,-0.5975033634303576
10,37336484.69121275
739,49082988.72102602
2,2, 1, 2, 0,15, 0.00,60.00,Tuesday
11,37336484.69121275
47,3292577.9794657409
87,11689117.23635193
186,13210715.409590949
213,0.04320820426694554
237,0.04320820426694554
561,9081685.419467956
649,0.0
662,0.0
740,49082988.72102602
764,49082988.72102602
789,0.0
814,62388.64633617568
2,2, 1, 2, 0,16, 0.00,60.00,Tuesday
8,-0.5971565962370674
10,38593980.690165568
739,52160134.15122018
2,2, 1, 2, 0,16, 0.00,60.00,Tuesday
11,38593980.690165568
47,3921406.4313788355
87,12203065.021432128
186,13320142.734110853
213,0.04953135611088879
237,0.04953135611088879
561,9081685.419467956
649,0.0
662,0.0
740,52160134.15122018
764,52160134.15122018
789,0.0
814,67681.08377579051
2,2, 1, 2, 0,17, 0.00,60.00,Tuesday
8,-0.5971565962370674
10,42271631.96713462
739,53959816.598856028
2,2, 1, 2, 0,17, 0.00,60.00,Tuesday
11,42271631.96713462
47,5388672.720385479
87,14258856.161752917
186,13471145.072611802
213,0.05796222523614646
237,0.05796222523614646
561,9081685.419467956
649,0.0
662,0.0
740,53959816.598856028
764,53959816.598856028
789,0.0
814,71272.59291646719
2,2, 1, 2, 0,18, 0.00,60.00,Tuesday
8,-1.1795657539051999
10,54464947.53572271
739,53675943.209177
2,2, 1, 2, 0,18, 0.00,60.00,Tuesday
11,54464947.53572271
47,5938789.058968977
87,17408383.782480409
186,13828256.80733443
213,0.0769316807679762
237,0.0769316807679762
561,9081685.419467956
649,0.0
662,8136915.988582432
740,53675943.209177
764,53675943.209177
789,0.0
814,70916.47888850427
2,2, 1, 2, 0,19, 0.00,60.00,Tuesday
8,-1.020404023167408
10,56105099.45704333
739,50243395.08375859
2,2, 1, 2, 0,19, 0.00,60.00,Tuesday
11,56105099.45704333
47,7406055.385022086
87,17314274.860679307
186,14101363.54191904
213,0.09063184309651992
237,0.09063184309651992
561,9081685.419467956
649,0.0
662,8136915.988582432
740,50243395.08375859
764,50243395.08375859
789,0.0
814,64804.26137250556
2,2, 1, 2, 0,20, 0.00,60.00,Tuesday
8,-1.6649382965486524
10,69904752.84918498
739,55223286.171963769
2,2, 1, 2, 0,20, 0.00,60.00,Tuesday
11,69904752.84918498
47,8454102.755481959
87,16115063.362158845
186,28043837.033201159
213,0.08641640853389109
237,0.08641640853389109
561,9081685.419467956
649,0.0
662,8136915.988582432
740,55223286.171963769
764,55223286.171963769
789,0.0
814,73148.29029264138
2,2, 1, 2, 0,21, 0.00,60.00,Tuesday
8,-2.0970481657497048
10,55040594.075202178
739,53138551.521005798
2,2, 1, 2, 0,21, 0.00,60.00,Tuesday
11,55040594.075202178
47,8454102.755481959
87,15429799.64871858
186,13868266.094396882
213,0.07903939804929063
237,0.07903939804929063
561,9081685.419467956
649,0.0
662,8136915.988582432
740,53138551.521005798
764,53138551.521005798
789,0.0
814,69824.16855436917
2,2, 1, 2, 0,22, 0.00,60.00,Tuesday
8,-2.448595400822192
10,51991736.429967697
739,59327757.67737015
2,2, 1, 2, 0,22, 0.00,60.00,Tuesday
11,51991736.429967697
47,6358008.014562218
87,14744535.935278317
186,13589589.198839046
213,0.0642853770800897
237,0.0642853770800897
561,9081685.419467956
649,0.0
662,8136915.988582432
740,59327757.67737015
764,59327757.67737015
789,0.0
814,81001.87323772192
2,2, 1, 2, 0,23, 0.00,60.00,Tuesday
8,-3.0766921149082706
10,47348868.20529799
739,62643016.854265678
2,2, 1, 2, 0,23, 0.00,60.00,Tuesday
11,47348868.20529799
47,4261913.273642479
87,12346112.938237396
186,13434078.996142349
213,0.05585450795483204
237,0.05585450795483204
561,9081685.419467956
649,0.0
662,8136915.988582432
740,62643016.854265678
764,62643016.854265678
789,0.0
814,88161.58922538681
2,2, 1, 2, 0,24, 0.00,60.00,Tuesday
8,-3.0766921149082706
10,30228089.714547136
739,66186732.026914719
2,2, 1, 2, 0,24, 0.00,60.00,Tuesday
11,30228089.714547136
47,2794646.9846358366
87,10119005.86955654
186,0.0
213,0.030561900579059038
237,0.030561900579059038
561,9081685.419467956
649,0.0
662,8136915.988582432
740,66186732.026914719
764,66186732.026914719
789,0.0
814,95835.45230437134
3,2, 1, 2, 0,Tuesday
395,20.938630610933058,20.481082365363663, 6,60,21.58501494452942, 1,60
2,3, 1, 3, 0, 1, 0.00,60.00,Wednesday
8,-3.8400849580777196
10,27941991.93190143
739,75711284.53433763
2,3, 1, 3, 0, 1, 0.00,60.00,Wednesday
11,27941991.93190143
47,2165818.5697692076
87,7891898.800875686
186,3604142.236990845
213,0.008430869125257666
237,0.008430869125257666
561,9081685.419467956
649,0.0
662,5081520.522436451
740,75711284.53433763
764,75711284.53433763
789,0.0
814,116926.38236128022
2,3, 1, 3, 0, 2, 0.00,60.00,Wednesday
8,-3.839424890680984
10,32608984.37228995
739,68460557.58830402
2,3, 1, 3, 0, 2, 0.00,60.00,Wednesday
11,32608984.37228995
47,2165818.5697692076
87,7206635.0874354219
186,8971024.501121315
213,0.004215434562628833
237,0.004215434562628833
561,9081685.419467956
649,0.0
662,5081520.522436451
740,68460557.58830402
764,68460557.58830402
789,0.0
814,102300.2720595964
2,3, 1, 3, 0, 3, 0.00,60.00,Wednesday
8,-4.1712791770681749
10,23295449.285174438
739,69018445.9048527
2,3, 1, 3, 0, 3, 0.00,60.00,Wednesday
11,23295449.285174438
47,2165818.5697692076
87,6864003.230715291
186,0.0
213,0.0010538586406572083
237,0.0010538586406572083
561,9081685.419467956
649,0.0
662,5081520.522436451
740,69018445.9048527
764,69018445.9048527
789,0.0
814,102421.54278553259
2,3, 1, 3, 0, 4, 0.00,60.00,Wednesday
8,-4.310274787688259
10,23143247.476428875
739,77611226.2234034
2,3, 1, 3, 0, 4, 0.00,60.00,Wednesday
11,23143247.476428875
47,2165818.5697692076
87,6692687.302355225
186,0.0
213,0.0010538586406572083
237,0.0010538586406572083
561,9081685.419467956
649,0.0
662,5081520.522436451
740,77611226.2234034
764,77611226.2234034
789,0.0
814,121535.66240003296
2,3, 1, 3, 0, 5, 0.00,60.00,Wednesday
8,-5.011897641093955
10,23989999.49219364
739,80658363.09486024
2,3, 1, 3, 0, 5, 0.00,60.00,Wednesday
11,23989999.49219364
47,3004256.443909223
87,6692687.302355225
186,0.0
213,0.004215434562628833
237,0.004215434562628833
561,9081685.419467956
649,0.0
662,5081520.522436451
740,80658363.09486024
764,80658363.09486024
789,0.0
814,129849.80402478145
2,3, 1, 3, 0, 6, 0.00,60.00,Wednesday
8,-5.348283325588144
10,26309207.06001009
739,78580975.56796895
2,3, 1, 3, 0, 6, 0.00,60.00,Wednesday
11,26309207.06001009
47,4471522.769962333
87,7549266.944155554
186,0.0
213,0.028454183297744626
237,0.028454183297744626
561,9081685.419467956
649,0.0
662,5081520.522436451
740,78580975.56796895
764,78580975.56796895
789,0.0
814,125211.40398779488
2,3, 1, 3, 0, 7, 0.00,60.00,Wednesday
8,-5.654568022820762
10,60019780.1501068
739,79162294.91490722
2,3, 1, 3, 0, 7, 0.00,60.00,Wednesday
11,60019780.1501068
47,4681132.229235721
87,9433742.156116279
186,28560047.758979616
213,0.09906271222177758
237,0.09906271222177758
561,9081685.419467956
649,0.0
662,8136915.988582432
740,79162294.91490722
764,79162294.91490722
789,0.0
814,126256.59772479498
2,3, 1, 3, 0, 8, 0.00,60.00,Wednesday
8,-5.4788702207489179
10,47590179.63191238
739,76261673.32560137
2,3, 1, 3, 0, 8, 0.00,60.00,Wednesday
11,47590179.63191238
47,4471522.769962333
87,11412326.289878104
186,14368172.587496553
213,0.10538586406572084
237,0.10538586406572084
561,9081685.419467956
649,0.0
662,8136915.988582432
740,76261673.32560137
764,76261673.32560137
789,0.0
814,119556.57652500432
2,3, 1, 3, 0, 9, 0.00,60.00,Wednesday
8,-5.78833505928885
10,53409767.25759637
739,70847586.66088438
2,3, 1, 3, 0, 9, 0.00,60.00,Wednesday
11,53409767.25759637
47,3711796.9350589818
87,11860433.164711995
186,28649008.639414345
213,0.101170429503092
237,0.101170429503092
561,9081685.419467956
649,0.0
662,0.0
740,70847586.66088438
764,70847586.66088438
789,0.0
814,106843.09894310226
2,3, 1, 3, 0,10, 0.00,60.00,Wednesday
8,-6.360779300234708
10,38590482.62985758
739,79090216.95978377
2,3, 1, 3, 0,10, 0.00,60.00,Wednesday
11,38590482.62985758
47,3292577.9794657409
87,12031749.093072063
186,14060149.365360903
213,0.0885241258152055
237,0.0885241258152055
561,9081685.419467956
649,0.0
662,0.0
740,79090216.95978377
764,79090216.95978377
789,0.0
814,124320.77249092117
2,3, 1, 3, 0,11, 0.00,60.00,Wednesday
8,-6.209417884049362
10,38758616.60858574
739,73207119.00500717
2,3, 1, 3, 0,11, 0.00,60.00,Wednesday
11,38758616.60858574
47,3292577.9794657409
87,12374380.94979219
186,13897728.672807083
213,0.08009325668994784
237,0.08009325668994784
561,9081685.419467956
649,0.0
662,0.0
740,73207119.00500717
764,73207119.00500717
789,0.0
814,112243.58705277114
2,3, 1, 3, 0,12, 0.00,60.00,Wednesday
8,-6.0824279633693039
10,41557723.771719988
739,67162797.87485671
2,3, 1, 3, 0,12, 0.00,60.00,Wednesday
11,41557723.771719988
47,3292577.9794657409
87,12545696.878152257
186,16539236.531306282
213,0.0642853770800897
237,0.0642853770800897
561,9081685.419467956
649,0.0
662,0.0
740,67162797.87485671
764,67162797.87485671
789,0.0
814,98526.96332775147
2,3, 1, 3, 0,13, 0.00,60.00,Wednesday
8,-6.550193446183367
10,35249462.148383017
739,68375517.36919403
2,3, 1, 3, 0,13, 0.00,60.00,Wednesday
11,35249462.148383017
47,3194308.4668060524
87,12341166.03621533
186,10532113.396712628
213,0.05585450795483204
237,0.05585450795483204
561,9081685.419467956
649,0.0
662,0.0
740,68375517.36919403
764,68375517.36919403
789,0.0
814,100188.82918105564
2,3, 1, 3, 0,14, 0.00,60.00,Wednesday
8,-6.889542842120662
10,37667004.27129174
739,71124853.10026606
2,3, 1, 3, 0,14, 0.00,60.00,Wednesday
11,37667004.27129174
47,3292577.9794657409
87,11860433.164711995
186,13326335.058688783
213,0.04953135611088879
237,0.04953135611088879
561,9081685.419467956
649,0.0
662,0.0
740,71124853.10026606
764,71124853.10026606
789,0.0
814,105972.64895726943
2,3, 1, 3, 0,15, 0.00,60.00,Wednesday
8,-7.3508378156906419
10,37376659.25271486
739,69116877.48820772
2,3, 1, 3, 0,15, 0.00,60.00,Wednesday
11,37376659.25271486
47,3292577.9794657409
87,11689117.23635193
186,13211393.07748396
213,0.04320820426694554
237,0.04320820426694554
561,9081685.419467956
649,0.0
662,0.0
740,69116877.48820772
764,69116877.48820772
789,0.0
814,101885.5399452756
2,3, 1, 3, 0,16, 0.00,60.00,Wednesday
8,-7.469274250048447
10,38642257.80766883
739,75331179.21100006
2,3, 1, 3, 0,16, 0.00,60.00,Wednesday
11,38642257.80766883
47,3921406.4313788355
87,12203065.021432128
186,13320992.07062348
213,0.04953135611088879
237,0.04953135611088879
561,9081685.419467956
649,0.0
662,0.0
740,75331179.21100006
764,75331179.21100006
789,0.0
814,115108.86476642915
2,3, 1, 3, 0,17, 0.00,60.00,Wednesday
8,-7.904415557688695
10,42322290.59527058
739,77547394.91501458
2,3, 1, 3, 0,17, 0.00,60.00,Wednesday
11,42322290.59527058
47,5388672.720385479
87,14258856.161752917
186,13472233.313245608
213,0.05796222523614646
237,0.05796222523614646
561,9081685.419467954
649,0.0
662,0.0
740,77547394.91501458
764,77547394.91501458
789,0.0
814,120842.98041862379
2,3, 1, 3, 0,18, 0.00,60.00,Wednesday
8,-8.367190283489729
10,54516587.557668399
739,77502356.17922209
2,3, 1, 3, 0,18, 0.00,60.00,Wednesday
11,54516587.557668399
47,5938789.058968977
87,17408383.782480409
186,13829915.231689753
213,0.0769316807679762
237,0.0769316807679762
561,9081685.419467956
649,0.0
662,8136915.988582432
740,77502356.17922209
764,77502356.17922209
789,0.0
814,120898.07647886595
2,3, 1, 3, 0,19, 0.00,60.00,Wednesday
8,-8.255558329956174
10,56159180.483702819
739,75699203.45122561
2,3, 1, 3, 0,19, 0.00,60.00,Wednesday
11,56159180.483702819
47,7406055.385022086
87,17314274.860679307
186,14103483.212025289
213,0.09063184309651992
237,0.09063184309651992
561,9081685.419467956
649,0.0
662,8136915.988582432
740,75699203.45122561
764,75699203.45122561
789,0.0
814,116765.61792574331
2,3, 1, 3, 0,20, 0.00,60.00,Wednesday
8,-8.816054925650735
10,69943799.28400199
739,72022444.14465837
2,3, 1, 3, 0,20, 0.00,60.00,Wednesday
11,69943799.28400199
47,8454102.755481959
87,16115063.362158845
186,28047852.59651564
213,0.08641640853389109
237,0.08641640853389109
561,9081685.419467956
649,0.0
662,8136915.988582432
740,72022444.14465837
764,72022444.14465837
789,0.0
814,108179.16179515117
2,3, 1, 3, 0,21, 0.00,60.00,Wednesday
8,-8.816054925650735
10,55083489.76273971
739,73561616.53347446
2,3, 1, 3, 0,21, 0.00,60.00,Wednesday
11,55083489.76273971
47,8454102.755481959
87,15429799.64871858
186,13870047.42261889
213,0.07903939804929063
237,0.07903939804929063
561,9081685.419467954
649,0.0
662,8136915.988582432
740,73561616.53347446
764,73561616.53347446
789,0.0
814,110938.52786989756
2,3, 1, 3, 0,22, 0.00,60.00,Wednesday
8,-10.14379348977496
10,52027929.87276929
739,75854945.70726936
2,3, 1, 3, 0,22, 0.00,60.00,Wednesday
11,52027929.87276929
47,6358008.014562218
87,14744535.935278317
186,13590947.518590445
213,0.0642853770800897
237,0.0642853770800897
561,9081685.419467956
649,0.0
662,8136915.988582432
740,75854945.70726936
764,75854945.70726936
789,0.0
814,115836.99628792356
2,3, 1, 3, 0,23, 0.00,60.00,Wednesday
8,-9.490273946420136
10,47387819.860801409
739,80083606.6976455
2,3, 1, 3, 0,23, 0.00,60.00,Wednesday
11,47387819.860801409
47,4261913.273642479
87,12346112.938237396
186,13435213.661351348
213,0.05585450795483204
237,0.05585450795483204
561,9081685.419467956
649,0.0
662,8136915.988582432
740,80083606.6976455
764,80083606.6976455
789,0.0
814,125978.57951979642
2,3, 1, 3, 0,24, 0.00,60.00,Wednesday
8,-9.592938811400991
10,30266959.109039114
739,83441816.28952392
2,3, 1, 3, 0,24, 0.00,60.00,Wednesday
11,30266959.109039114
47,2794646.9846358366
87,10119005.86955654
186,0.0
213,0.030561900579059038
237,0.030561900579059038
561,9081685.419467956
649,0.0
662,8136915.988582432
740,83441816.28952392
764,83441816.28952392
789,0.0
814,134704.84679634719
3,3, 1, 3, 0,Wednesday
395,14.659093682335696,10.952244701881869,24,60,19.948406623072989, 1,60
2,4, 1, 4, 0, 1, 0.00,60.00,Thursday