Program Version,EnergyPlus, Version 9.1.0-08d2e308bb, YMD=2019.12.31 13:04
1,5,Environment Title[],Latitude[deg],Longitude[deg],Time Zone[],Elevation[m]
2,8,Day of Simulation[],Month[],Day of Month[],DST Indicator[1=yes 0=no],Hour[],StartMinute[],EndMinute[],DayType
3,5,Cumulative Day of Simulation[],Month[],Day of Month[],DST Indicator[1=yes 0=no],DayType  ! When Daily Report Variables Requested
4,2,Cumulative Days of Simulation[],Month[]  ! When Monthly Report Variables Requested
5,1,Cumulative Days of Simulation[] ! When Run Period Report Variables Requested
6,1,Calendar Year of Simulation[] ! When Annual Report Variables Requested
7,9,Environment,Site Outdoor Air Drybulb Temperature [C] !Monthly [Value,Min,Day,Hour,Minute,Max,Day,Hour,Minute]
8,1,Environment,Site Outdoor Air Wetbulb Temperature [C] !TimeStep
501,1,BUILDING STORY 1 THERMALZONE,Zone Air Temperature [C] !Hourly
502,7,BUILDING STORY 1 THERMALZONE,Zone Air Relative Humidity [%] !Daily [Value,Min,Hour,Minute,Max,Hour,Minute]
541,1,BUILDING STORY 2 THERMALZONE,Zone Air Temperature [C] !Hourly
542,7,BUILDING STORY 2 THERMALZONE,Zone Air Relative Humidity [%] !Daily [Value,Min,Hour,Minute,Max,Hour,Minute]
581,1,BUILDING STORY 3 THERMALZONE,Zone Air Temperature [C] !Hourly
582,7,BUILDING STORY 3 THERMALZONE,Zone Air Relative Humidity [%] !Daily [Value,Min,Hour,Minute,Max,Hour,Minute]
10,1,Electricity:Facility [J] !TimeStep
1075,1,Gas:Facility [J] !TimeStep
End of Data Dictionary
1,BUFFALO NIAGARA INTL AP ANN CLG .4% CONDNS DB=>MWB,  42.93, -78.73,  -5.00, 215.00
2,1, 7,21, 0, 1, 0.00,60.00,SummerDesignDay
8,19.36840579326866
10,5580247494.766271
1075,0.0
2,1, 7,21, 0, 1, 0.00,60.00,SummerDesignDay
501,22.255217207661379
541,21.622176360903138
581,22.16681434640022
2,1, 7,21, 0, 2, 0.00,60.00,SummerDesignDay
8,19.25226217922265
10,5563594118.197045
1075,0.0
2,1, 7,21, 0, 2, 0.00,60.00,SummerDesignDay
501,22.21908774442701
541,21.58097617551616
581,22.04936293450401
2,1, 7,21, 0, 3, 0.00,60.00,SummerDesignDay
8,19.164819553782637
10,5550762682.370142
1075,0.0
2,1, 7,21, 0, 3, 0.00,60.00,SummerDesignDay
501,22.19370413295244
541,21.54389126373253
581,21.949575485109685
2,1, 7,21, 0, 4, 0.00,60.00,SummerDesignDay
8,19.0770792448193
10,5538446454.383461
1075,0.0
2,1, 7,21, 0, 4, 0.00,60.00,SummerDesignDay
501,22.174683162382494
541,21.508833024712769
581,21.858518121668224
2,1, 7,21, 0, 5, 0.00,60.00,SummerDesignDay
8,19.018427637799467
10,5529517078.157137
1075,0.0
2,1, 7,21, 0, 5, 0.00,60.00,SummerDesignDay
501,22.160517049192025
541,21.47641617984874
581,21.780301137182357
2,1, 7,21, 0, 6, 0.00,60.00,SummerDesignDay
8,19.0770792448193
10,5064191070.970533
1075,0.0
2,1, 7,21, 0, 6, 0.00,60.00,SummerDesignDay
501,22.301630725509729
541,21.531017786267396
581,21.833109320675328
2,1, 7,21, 0, 7, 0.00,60.00,SummerDesignDay
8,19.281346189070228
10,5090788340.604373
1075,0.0
2,1, 7,21, 0, 7, 0.00,60.00,SummerDesignDay
501,22.653624048151977
541,21.688938473641689
581,22.059184821326114
2,1, 7,21, 0, 8, 0.00,60.00,SummerDesignDay
8,19.770887505670989
10,5152904276.432496
1075,0.0
2,1, 7,21, 0, 8, 0.00,60.00,SummerDesignDay
501,23.040877815107007
541,21.843168470225586
581,22.362795979236524
2,1, 7,21, 0, 9, 0.00,60.00,SummerDesignDay
8,20.30732185289352
10,5225383646.750545
1075,0.0
2,1, 7,21, 0, 9, 0.00,60.00,SummerDesignDay
501,23.30640317542883
541,21.95731393082871
581,22.6549663155845
2,1, 7,21, 0,10, 0.00,60.00,SummerDesignDay
8,20.778037156782458
10,5300398330.373379
1075,0.0
2,1, 7,21, 0,10, 0.00,60.00,SummerDesignDay
501,23.40740284233845
541,22.014624825243638
581,22.878888148263508
2,1, 7,21, 0,11, 0.00,60.00,SummerDesignDay
8,21.186337137460165
10,5368147842.951066
1075,0.0
2,1, 7,21, 0,11, 0.00,60.00,SummerDesignDay
501,23.359180985883083
541,22.012231515295715
581,23.025160736069009
2,1, 7,21, 0,12, 0.00,60.00,SummerDesignDay
8,21.45495938709981
10,5413733938.148924
1075,0.0
2,1, 7,21, 0,12, 0.00,60.00,SummerDesignDay
501,23.22111222311706
541,21.97273058476195
581,23.102700541964457
2,1, 7,21, 0,13, 0.00,60.00,SummerDesignDay
8,21.667839996742449
10,5650426399.016314
1075,0.0
2,1, 7,21, 0,13, 0.00,60.00,SummerDesignDay
501,23.174623282444647
541,21.988334983623134
581,23.218984102775534
2,1, 7,21, 0,14, 0.00,60.00,SummerDesignDay
8,21.799990419629109
10,5542399428.312251
1075,0.0
2,1, 7,21, 0,14, 0.00,60.00,SummerDesignDay
501,23.289209076092896
541,22.072141315294439
581,23.39725641713268
2,1, 7,21, 0,15, 0.00,60.00,SummerDesignDay
8,21.799990419629109
10,5548066505.012831
1075,0.0
2,1, 7,21, 0,15, 0.00,60.00,SummerDesignDay
501,23.46583994438411
541,22.164743514857123
581,23.561594858706234
2,1, 7,21, 0,16, 0.00,60.00,SummerDesignDay
8,21.641326796728476
10,5660815877.01527
1075,0.0
2,1, 7,21, 0,16, 0.00,60.00,SummerDesignDay
501,23.612053559596388
541,22.234813321812117
581,23.65531364677292
2,1, 7,21, 0,17, 0.00,60.00,SummerDesignDay
8,21.42822317147698
10,5429674524.57244
1075,0.0
2,1, 7,21, 0,17, 0.00,60.00,SummerDesignDay
501,23.68485174555694
541,22.2749011734627
581,23.678512087169204
2,1, 7,21, 0,18, 0.00,60.00,SummerDesignDay
8,21.15931786227956
10,5507199164.8143429
1075,0.0
2,1, 7,21, 0,18, 0.00,60.00,SummerDesignDay
501,23.638416266508533
541,22.262348252555495
581,23.6102518611722
2,1, 7,21, 0,19, 0.00,60.00,SummerDesignDay
8,20.750583661392644
10,5474734136.595662
1075,0.0
2,1, 7,21, 0,19, 0.00,60.00,SummerDesignDay
501,23.412827425859068
541,22.16376011819852
581,23.39437309313233
2,1, 7,21, 0,20, 0.00,60.00,SummerDesignDay
8,20.446661088459409
10,5270935786.527233
1075,0.0
2,1, 7,21, 0,20, 0.00,60.00,SummerDesignDay
501,23.001490008777574
541,21.979172423202415
581,23.068307400270549
2,1, 7,21, 0,21, 0.00,60.00,SummerDesignDay
8,20.19530361990708
10,5774548000.649976
1075,0.0
2,1, 7,21, 0,21, 0.00,60.00,SummerDesignDay
501,22.661497273489155
541,21.868182528981444
581,22.815652641036608
2,1, 7,21, 0,22, 0.00,60.00,SummerDesignDay
8,19.941485234887624
10,5737973152.778551
1075,0.0
2,1, 7,21, 0,22, 0.00,60.00,SummerDesignDay
501,22.473693751187569
541,21.793420728948566
581,22.61946346626498
2,1, 7,21, 0,23, 0.00,60.00,SummerDesignDay
8,19.7423381019073
10,5643629871.283828
1075,0.0
2,1, 7,21, 0,23, 0.00,60.00,SummerDesignDay
501,22.37384766170932
541,21.732015064478547
581,22.457582152823066
2,1, 7,21, 0,24, 0.00,60.00,SummerDesignDay
8,19.54165603023991
10,5616517841.056932
1075,0.0
2,1, 7,21, 0,24, 0.00,60.00,SummerDesignDay
501,22.30620574364146
541,21.678146889343976
581,22.306204769032644
3,1, 7,21, 0,SummerDesignDay
502,55.647782938841498,53.12821161550596,17,60,58.009252604066059, 5,60
542,56.28837075988141,54.854186975545029,17,60,57.75034188167821, 5,60
582,55.03655679163466,51.917431553131788,17,60,58.300411351697558, 5,60
4,1, 7
7,25.312875000000003,21.0,21, 5,60,30.3,21,14,60
1,BUFFALO NIAGARA INTL AP ANN CLG .4% CONDNS WB=>MDB,  42.93, -78.73,  -5.00, 215.00
2,1, 7,21, 0, 1, 0.00,60.00,SummerDesignDay
8,19.615996954992807
10,5610355222.586999
1075,0.0
2,1, 7,21, 0, 1, 0.00,60.00,SummerDesignDay
501,22.190183244181044
541,21.484341753735739
581,21.71563281395895
2,1, 7,21, 0, 2, 0.00,60.00,SummerDesignDay
8,19.243988037109376
10,5561198527.884545
1075,0.0
2,1, 7,21, 0, 2, 0.00,60.00,SummerDesignDay
501,22.1543483651132
541,21.443198946877979
581,21.598227085400376
2,1, 7,21, 0, 3, 0.00,60.00,SummerDesignDay
8,18.96499632356402
10,5524910560.919934
1075,0.0
2,1, 7,21, 0, 3, 0.00,60.00,SummerDesignDay
501,22.12931486188968
541,21.406150172598694
581,21.498459642023197
2,1, 7,21, 0, 4, 0.00,60.00,SummerDesignDay
8,18.685989379882814
10,5490711563.598856
1075,0.0
2,1, 7,21, 0, 4, 0.00,60.00,SummerDesignDay
501,22.110722352572233
541,21.371107399278356
581,21.40730513240229
2,1, 7,21, 0, 5, 0.00,60.00,SummerDesignDay
8,18.49999810986028
10,5466834558.649261
1075,0.0
2,1, 7,21, 0, 5, 0.00,60.00,SummerDesignDay
501,22.096745655020376
541,21.338702133838493
581,21.32904277959208
2,1, 7,21, 0, 6, 0.00,60.00,SummerDesignDay
8,18.685989379882814
10,5012432300.775519
1075,0.0
2,1, 7,21, 0, 6, 0.00,60.00,SummerDesignDay
501,22.235020031551558
541,21.392105429361725
581,21.381412163525224
2,1, 7,21, 0, 7, 0.00,60.00,SummerDesignDay
8,19.336990356445314
10,5087495948.116537
1075,0.0
2,1, 7,21, 0, 7, 0.00,60.00,SummerDesignDay
501,22.58409524792968
541,21.549127816660879
581,21.607208038644307
2,1, 7,21, 0, 8, 0.00,60.00,SummerDesignDay
8,20.917992548817627
10,5301895317.629824
1075,0.0
2,1, 7,21, 0, 8, 0.00,60.00,SummerDesignDay
501,22.96933930441664
541,21.702840106958307
581,21.910531036414178
2,1, 7,21, 0, 9, 0.00,60.00,SummerDesignDay
8,22.420023807696297
10,5562499334.062372
1075,0.0
2,1, 7,21, 0, 9, 0.00,60.00,SummerDesignDay
501,23.234102982058024
541,21.81700758103202
581,22.203898368868719
2,1, 7,21, 0,10, 0.00,60.00,SummerDesignDay
8,22.854695006230427
10,5662980155.010718
1075,0.0
2,1, 7,21, 0,10, 0.00,60.00,SummerDesignDay
501,23.334738970328229
541,21.874236376394049
581,22.42844945640253
2,1, 7,21, 0,11, 0.00,60.00,SummerDesignDay
8,23.232104587122938
10,5817347645.47253
1075,0.0
2,1, 7,21, 0,11, 0.00,60.00,SummerDesignDay
501,23.28646224571248
541,21.871919596394898
581,22.575822234680847
2,1, 7,21, 0,12, 0.00,60.00,SummerDesignDay
8,23.480593542408348
10,5922805576.783489
1075,0.0
2,1, 7,21, 0,12, 0.00,60.00,SummerDesignDay
501,23.148897396105679
541,21.832815286081475
581,22.65483577226708
2,1, 7,21, 0,13, 0.00,60.00,SummerDesignDay
8,23.677626430315248
10,6202188067.121915
1075,0.0
2,1, 7,21, 0,13, 0.00,60.00,SummerDesignDay
501,23.1024863616149
541,21.848465097199278
581,22.77211689514426
2,1, 7,21, 0,14, 0.00,60.00,SummerDesignDay
8,23.799986320868798
10,6119983389.69784
1075,0.0
2,1, 7,21, 0,14, 0.00,60.00,SummerDesignDay
501,23.216599720886543
541,21.93201508184107
581,22.95078013405727
2,1, 7,21, 0,15, 0.00,60.00,SummerDesignDay
8,23.799986320868798
10,6131401184.264445
1075,0.0
2,1, 7,21, 0,15, 0.00,60.00,SummerDesignDay
501,23.392880776863146
541,22.024465502207318
581,23.115040308798407
2,1, 7,21, 0,16, 0.00,60.00,SummerDesignDay
8,23.653081835774505
10,6223820908.561228
1075,0.0
2,1, 7,21, 0,16, 0.00,60.00,SummerDesignDay
501,23.539079556461809
541,22.0944905708598
581,23.208219223652937
2,1, 7,21, 0,17, 0.00,60.00,SummerDesignDay
8,23.4558543827806
10,5963247962.15898
1075,0.0
2,1, 7,21, 0,17, 0.00,60.00,SummerDesignDay
501,23.612035400303179
541,22.134532468873215
581,23.230678677069258
2,1, 7,21, 0,18, 0.00,60.00,SummerDesignDay
8,23.207119318496696
10,6000142099.729254
1075,0.0
2,1, 7,21, 0,18, 0.00,60.00,SummerDesignDay
501,23.566038338789708
541,22.122027514105196
581,23.161622047129357
2,1, 7,21, 0,19, 0.00,60.00,SummerDesignDay
8,22.82933132300861
10,5904864998.573033
1075,0.0
2,1, 7,21, 0,19, 0.00,60.00,SummerDesignDay
501,23.34145985216875
541,22.02372290469692
581,22.944796520965374
2,1, 7,21, 0,20, 0.00,60.00,SummerDesignDay
8,22.548645905899027
10,5644713642.609383
1075,0.0
2,1, 7,21, 0,20, 0.00,60.00,SummerDesignDay
501,22.93234606788664
541,21.84013117137588
581,22.61859070835495
2,1, 7,21, 0,21, 0.00,60.00,SummerDesignDay
8,22.312987690310977
10,6124652574.614767
1075,0.0
2,1, 7,21, 0,21, 0.00,60.00,SummerDesignDay
501,22.594526416451069
541,21.729696885544884
581,22.36550739505914
2,1, 7,21, 0,22, 0.00,60.00,SummerDesignDay
8,21.475995587251039
10,5979743910.731233
1075,0.0
2,1, 7,21, 0,22, 0.00,60.00,SummerDesignDay
501,22.40770139895559
541,21.65500960334499
581,22.168555439077058
2,1, 7,21, 0,23, 0.00,60.00,SummerDesignDay
8,20.824995071347869
10,5801751960.061025
1075,0.0
2,1, 7,21, 0,23, 0.00,60.00,SummerDesignDay
501,22.308202356521798
541,21.59364442912227
581,22.006443580869108
2,1, 7,21, 0,24, 0.00,60.00,SummerDesignDay
8,20.173995840857065
10,5697610031.745837
1075,0.0
2,1, 7,21, 0,24, 0.00,60.00,SummerDesignDay
501,22.240853450348689
541,21.539873718197858
581,21.855052142714709
3,1, 7,21, 0,SummerDesignDay
502,56.2802668993974,53.82970756217277,17,60,58.408666087396, 5,60
542,57.38644376597018,56.13620157116481,17,60,58.40035639107754, 5,60
582,58.70062557781309,56.203688227808047,17,60,60.28751835252827, 5,60
4,1, 7
7,22.812875000000003,18.5,21, 5,60,27.8,21,14,60
1,BUFFALO NIAGARA INTL AP ANN HTG 99.6% CONDNS DB,  42.93, -78.73,  -5.00, 215.00
2,1, 1,21, 0, 1, 0.00,60.00,WinterDesignDay
8,-16.3
10,1356208526.9686416
1075,10963457109.929638
2,1, 1,21, 0, 1, 0.00,60.00,WinterDesignDay
501,15.560022390806115
541,15.567848981984579
581,21.10862198021338
2,1, 1,21, 0, 2, 0.00,60.00,WinterDesignDay
8,-16.3
10,1348957299.669379
1075,8872093605.037627
2,1, 1,21, 0, 2, 0.00,60.00,WinterDesignDay
501,15.560327753027624
541,15.56071613542677
581,15.882074552625534
2,1, 1,21, 0, 3, 0.00,60.00,WinterDesignDay
8,-16.3
10,1350271923.2124789
1075,9576666202.6834
2,1, 1,21, 0, 3, 0.00,60.00,WinterDesignDay
501,15.55939119388838
541,15.560451356615499
581,15.64081085968488
2,1, 1,21, 0, 4, 0.00,60.00,WinterDesignDay
8,-16.3
10,1350312655.9061437
1075,9619133238.855669
2,1, 1,21, 0, 4, 0.00,60.00,WinterDesignDay
501,15.559788562810266
541,15.557493622159085
581,15.577846964996454
2,1, 1,21, 0, 5, 0.00,60.00,WinterDesignDay
8,-16.3
10,1350701051.2228657
1075,9792282238.441884
2,1, 1,21, 0, 5, 0.00,60.00,WinterDesignDay
501,15.557931579107363
541,15.56155020848124
581,15.561737191752261
2,1, 1,21, 0, 6, 0.00,60.00,WinterDesignDay
8,-16.3
10,1350875364.0460354
1075,9871886081.15893
2,1, 1,21, 0, 6, 0.00,60.00,WinterDesignDay
501,15.562123789860494
541,15.56132651347343
581,15.560641034556536
2,1, 1,21, 0, 7, 0.00,60.00,WinterDesignDay
8,-16.3
10,1363707366.1940046
1075,9925504642.776326
2,1, 1,21, 0, 7, 0.00,60.00,WinterDesignDay
501,15.563722767520295
541,15.560670352750004
581,15.554292857369177
2,1, 1,21, 0, 8, 0.00,60.00,WinterDesignDay
8,-16.3
10,1363809500.0019553
1075,9973276404.805598
2,1, 1,21, 0, 8, 0.00,60.00,WinterDesignDay
501,15.563340452764896
541,15.562947803218617
581,15.55996812730071
2,1, 1,21, 0, 9, 0.00,60.00,WinterDesignDay
8,-16.3
10,891571837.6822994
1075,12213648028.686505
2,1, 1,21, 0, 9, 0.00,60.00,WinterDesignDay
501,17.04889594575574
541,18.135105222200527
581,18.169975066330058
2,1, 1,21, 0,10, 0.00,60.00,WinterDesignDay
8,-16.3
10,904531940.1309666
1075,13716974185.091315
2,1, 1,21, 0,10, 0.00,60.00,WinterDesignDay
501,17.5235897638927
541,20.098700886905897
581,20.905640259417387
2,1, 1,21, 0,11, 0.00,60.00,WinterDesignDay
8,-16.3
10,900645812.695608
1075,13052460282.34127
2,1, 1,21, 0,11, 0.00,60.00,WinterDesignDay
501,17.810591718336718
541,20.364950359056736
581,21.120695792054954
2,1, 1,21, 0,12, 0.00,60.00,WinterDesignDay
8,-16.3
10,968101624.3173943
1075,13065691458.103903
2,1, 1,21, 0,12, 0.00,60.00,WinterDesignDay
501,17.966602565441549
541,20.312309731823274
581,21.1151912069334
2,1, 1,21, 0,13, 0.00,60.00,WinterDesignDay
8,-16.3
10,1101961659.5565532
1075,12985023851.230692
2,1, 1,21, 0,13, 0.00,60.00,WinterDesignDay
501,18.027676062086287
541,20.386682265930025
581,21.114467642278865
2,1, 1,21, 0,14, 0.00,60.00,WinterDesignDay
8,-16.3
10,968118216.6464955
1075,12933753886.049592
2,1, 1,21, 0,14, 0.00,60.00,WinterDesignDay
501,18.055520570554845
541,20.492581041025269
581,21.109738990069727
2,1, 1,21, 0,15, 0.00,60.00,WinterDesignDay
8,-16.3
10,1102770960.606214
1075,12883513098.489224
2,1, 1,21, 0,15, 0.00,60.00,WinterDesignDay
501,18.074095099302057
541,20.55715047836557
581,21.10023602860018
2,1, 1,21, 0,16, 0.00,60.00,WinterDesignDay
8,-16.3
10,966996436.0774529
1075,12856343183.945263
2,1, 1,21, 0,16, 0.00,60.00,WinterDesignDay
501,18.086515234429564
541,20.622702427812447
581,21.098908539006314
2,1, 1,21, 0,17, 0.00,60.00,WinterDesignDay
8,-16.3
10,1100418277.5471397
1075,12818237720.244421
2,1, 1,21, 0,17, 0.00,60.00,WinterDesignDay
501,18.09383794606188
541,20.67460895944907
581,21.093289648899967
2,1, 1,21, 0,18, 0.00,60.00,WinterDesignDay
8,-16.3
10,1448496777.615628
1075,12804102407.480315
2,1, 1,21, 0,18, 0.00,60.00,WinterDesignDay
501,18.098130925154107
541,20.73673186297855
581,21.10002276450154
2,1, 1,21, 0,19, 0.00,60.00,WinterDesignDay
8,-16.3
10,1582049365.7951024
1075,12788505340.589735
2,1, 1,21, 0,19, 0.00,60.00,WinterDesignDay
501,18.100827404276769
541,20.80303734206366
581,21.10818268119152
2,1, 1,21, 0,20, 0.00,60.00,WinterDesignDay
8,-16.3
10,1380550851.342901
1075,12761022498.304995
2,1, 1,21, 0,20, 0.00,60.00,WinterDesignDay
501,18.102588298028409
541,20.843682619163468
581,21.11146865542462
2,1, 1,21, 0,21, 0.00,60.00,WinterDesignDay
8,-16.3
10,1380454144.5755556
1075,12745926944.444783
2,1, 1,21, 0,21, 0.00,60.00,WinterDesignDay
501,18.103733394668745
541,20.896130758969606
581,21.108672321070335
2,1, 1,21, 0,22, 0.00,60.00,WinterDesignDay
8,-16.3
10,1435083411.2021962
1075,10407115233.448632
2,1, 1,21, 0,22, 0.00,60.00,WinterDesignDay
501,15.683134255791238
541,16.10628089804428
581,21.109840571138393
2,1, 1,21, 0,23, 0.00,60.00,WinterDesignDay
8,-16.3
10,1368650484.1792637
1075,10848545224.065333
2,1, 1,21, 0,23, 0.00,60.00,WinterDesignDay
501,15.576830194084945
541,15.678670552465718
581,21.11484369034968
2,1, 1,21, 0,24, 0.00,60.00,WinterDesignDay
8,-16.3
10,1368556315.1681858
1075,10827355520.062266
2,1, 1,21, 0,24, 0.00,60.00,WinterDesignDay
501,15.559923282974692
541,15.587703652784584
581,21.104743391905236
3,1, 1,21, 0,WinterDesignDay
502,7.65822188203677,7.051966394431335,21,60,8.289190921606578, 3,30
542,7.102892883281782,5.927833996833195,21,60,8.289328038045517, 3,30
582,6.605237443477311,5.846575976588179,11,60,8.290985295259388, 7,60
4,1, 1
7,-16.300000000000009,-16.3,21, 1,60,-16.3,21, 1,60
End of Data
 Number of Records Written=         444
