Program Version,EnergyPlus, Version 9.1.0-08d2e308bb, YMD=2019.12.31 13:02
1,5,Environment Title[],Latitude[deg],Longitude[deg],Time Zone[],Elevation[m]
2,8,Day of Simulation[],Month[],Day of Month[],DST Indicator[1=yes 0=no],Hour[],StartMinute[],EndMinute[],DayType
3,5,Cumulative Day of Simulation[],Month[],Day of Month[],DST Indicator[1=yes 0=no],DayType  ! When Daily Report Variables Requested
4,2,Cumulative Days of Simulation[],Month[]  ! When Monthly Report Variables Requested
5,1,Cumulative Days of Simulation[] ! When Run Period Report Variables Requested
6,1,Calendar Year of Simulation[] ! When Annual Report Variables Requested
7,9,Environment,Site Outdoor Air Drybulb Temperature [C] !Monthly [Value,Min,Day,Hour,Minute,Max,Day,Hour,Minute]
8,1,Environment,Site Outdoor Air Wetbulb Temperature [C] !TimeStep
488,1,BUILDING STORY 1 THERMALZONE,Zone Air Temperature [C] !Hourly
489,7,BUILDING STORY 1 THERMALZONE,Zone Air Relative Humidity [%] !Daily [Value,Min,Hour,Minute,Max,Hour,Minute]
528,1,BUILDING STORY 2 THERMALZONE,Zone Air Temperature [C] !Hourly
529,7,BUILDING STORY 2 THERMALZONE,Zone Air Relative Humidity [%] !Daily [Value,Min,Hour,Minute,Max,Hour,Minute]
568,1,BUILDING STORY 3 THERMALZONE,Zone Air Temperature [C] !Hourly
569,7,BUILDING STORY 3 THERMALZONE,Zone Air Relative Humidity [%] !Daily [Value,Min,Hour,Minute,Max,Hour,Minute]
10,1,Electricity:Facility [J] !TimeStep
925,1,Gas:Facility [J] !TimeStep
End of Data Dictionary
1,BUFFALO NIAGARA INTL AP ANN CLG .4% CONDNS DB=>MWB,  42.93, -78.73,  -5.00, 215.00
2,1, 7,21, 0, 1, 0.00,60.00,SummerDesignDay
8,19.36840579326866
10,172794535.337792
925,0.0
2,1, 7,21, 0, 1, 0.00,60.00,SummerDesignDay
488,24.400332540176107
528,24.400055021027304
568,24.397619375579457
2,1, 7,21, 0, 2, 0.00,60.00,SummerDesignDay
8,19.25226217922265
10,165980570.73401804
925,0.0
2,1, 7,21, 0, 2, 0.00,60.00,SummerDesignDay
488,24.400196358814769
528,24.40009338117723
568,24.397863346334466
2,1, 7,21, 0, 3, 0.00,60.00,SummerDesignDay
8,19.164819553782637
10,161698914.3650516
925,0.0
2,1, 7,21, 0, 3, 0.00,60.00,SummerDesignDay
488,24.400106740798557
528,24.40009270300404
568,24.398020173743644
2,1, 7,21, 0, 4, 0.00,60.00,SummerDesignDay
8,19.0770792448193
10,158596229.52709297
925,0.0
2,1, 7,21, 0, 4, 0.00,60.00,SummerDesignDay
488,24.40005199291208
528,24.400078238349097
568,24.39813335434256
2,1, 7,21, 0, 5, 0.00,60.00,SummerDesignDay
8,19.018427637799467
10,160668088.25147549
925,0.0
2,1, 7,21, 0, 5, 0.00,60.00,SummerDesignDay
488,24.400025878253108
528,24.40005109457771
568,24.398190130944419
2,1, 7,21, 0, 6, 0.00,60.00,SummerDesignDay
8,19.0770792448193
10,162497724.32132597
925,0.0
2,1, 7,21, 0, 6, 0.00,60.00,SummerDesignDay
488,24.399838132654975
528,24.399848597104407
568,24.397841332330495
2,1, 7,21, 0, 7, 0.00,60.00,SummerDesignDay
8,19.281346189070228
10,239127451.54284335
925,0.0
2,1, 7,21, 0, 7, 0.00,60.00,SummerDesignDay
488,24.398744400201819
528,24.399017982508519
568,24.396871706747306
2,1, 7,21, 0, 8, 0.00,60.00,SummerDesignDay
8,19.770887505670989
10,319440490.6883107
925,0.0
2,1, 7,21, 0, 8, 0.00,60.00,SummerDesignDay
488,24.396673221177119
528,24.39739574375101
568,24.395247624403085
2,1, 7,21, 0, 9, 0.00,60.00,SummerDesignDay
8,20.30732185289352
10,277352529.6640914
925,0.0
2,1, 7,21, 0, 9, 0.00,60.00,SummerDesignDay
488,24.39570632835374
528,24.396228851427599
568,24.393806523723119
2,1, 7,21, 0,10, 0.00,60.00,SummerDesignDay
8,20.778037156782458
10,287089537.36872878
925,0.0
2,1, 7,21, 0,10, 0.00,60.00,SummerDesignDay
488,24.395936579806308
528,24.395785449558994
568,24.39290934408154
2,1, 7,21, 0,11, 0.00,60.00,SummerDesignDay
8,21.186337137460165
10,294665052.2329126
925,0.0
2,1, 7,21, 0,11, 0.00,60.00,SummerDesignDay
488,24.39700619614735
528,24.39610940007195
568,24.392637601383237
2,1, 7,21, 0,12, 0.00,60.00,SummerDesignDay
8,21.45495938709981
10,295859994.8652281
925,0.0
2,1, 7,21, 0,12, 0.00,60.00,SummerDesignDay
488,24.39827179262583
528,24.396870682515254
568,24.392842267157094
2,1, 7,21, 0,13, 0.00,60.00,SummerDesignDay
8,21.667839996742449
10,296899728.55706039
925,0.0
2,1, 7,21, 0,13, 0.00,60.00,SummerDesignDay
488,24.399037644299815
528,24.397464596484494
568,24.393039911507587
2,1, 7,21, 0,14, 0.00,60.00,SummerDesignDay
8,21.799990419629109
10,247954388.27086804
925,0.0
2,1, 7,21, 0,14, 0.00,60.00,SummerDesignDay
488,24.39935601928675
528,24.397780272344506
568,24.39309932328804
2,1, 7,21, 0,15, 0.00,60.00,SummerDesignDay
8,21.799990419629109
10,296482767.7895456
925,0.0
2,1, 7,21, 0,15, 0.00,60.00,SummerDesignDay
488,24.399479867503787
528,24.3979373766397
568,24.393136215943028
2,1, 7,21, 0,16, 0.00,60.00,SummerDesignDay
8,21.641326796728476
10,299782029.28073999
925,0.0
2,1, 7,21, 0,16, 0.00,60.00,SummerDesignDay
488,24.399404461269147
528,24.39789702655688
568,24.393136141328009
2,1, 7,21, 0,17, 0.00,60.00,SummerDesignDay
8,21.42822317147698
10,265280754.82756735
925,0.0
2,1, 7,21, 0,17, 0.00,60.00,SummerDesignDay
488,24.398935051192816
528,24.39750833868974
568,24.392949731886259
2,1, 7,21, 0,18, 0.00,60.00,SummerDesignDay
8,21.15931786227956
10,334051317.22118249
925,0.0
2,1, 7,21, 0,18, 0.00,60.00,SummerDesignDay
488,24.398353506716675
528,24.397024498541549
568,24.392809919385376
2,1, 7,21, 0,19, 0.00,60.00,SummerDesignDay
8,20.750583661392644
10,336755643.75636419
925,0.0
2,1, 7,21, 0,19, 0.00,60.00,SummerDesignDay
488,24.398645538783066
528,24.39721172560244
568,24.39330880639998
2,1, 7,21, 0,20, 0.00,60.00,SummerDesignDay
8,20.446661088459409
10,352053759.1998545
925,0.0
2,1, 7,21, 0,20, 0.00,60.00,SummerDesignDay
488,24.399897710522006
528,24.39838869092718
568,24.394663146666937
2,1, 7,21, 0,21, 0.00,60.00,SummerDesignDay
8,20.19530361990708
10,310756648.1744688
925,0.0
2,1, 7,21, 0,21, 0.00,60.00,SummerDesignDay
488,24.40039142231799
528,24.399067286306335
568,24.39560550280973
2,1, 7,21, 0,22, 0.00,60.00,SummerDesignDay
8,19.941485234887624
10,240666865.4229131
925,0.0
2,1, 7,21, 0,22, 0.00,60.00,SummerDesignDay
488,24.40047728094146
528,24.39942087935152
568,24.396246331668175
2,1, 7,21, 0,23, 0.00,60.00,SummerDesignDay
8,19.7423381019073
10,264894784.72908745
925,0.0
2,1, 7,21, 0,23, 0.00,60.00,SummerDesignDay
488,24.40051110937753
528,24.399718115502485
568,24.396795301021123
2,1, 7,21, 0,24, 0.00,60.00,SummerDesignDay
8,19.54165603023991
10,242023377.76105619
925,0.0
2,1, 7,21, 0,24, 0.00,60.00,SummerDesignDay
488,24.40046496231582
528,24.399929448421653
568,24.397257180786089
3,1, 7,21, 0,SummerDesignDay
489,55.37197794015825,49.66612243453148,19,60,64.3839850229261, 6,60
529,52.87469540504562,48.58170188684879,19,60,59.59747248928742, 6,60
569,52.218435523116088,49.89352252205953,18,60,55.61093010219279, 6,60
4,1, 7
7,25.312875000000003,21.0,21, 5,60,30.3,21,14,60
1,BUFFALO NIAGARA INTL AP ANN CLG .4% CONDNS WB=>MDB,  42.93, -78.73,  -5.00, 215.00
2,1, 7,21, 0, 1, 0.00,60.00,SummerDesignDay
8,19.615996954992807
10,164754742.43979163
925,0.0
2,1, 7,21, 0, 1, 0.00,60.00,SummerDesignDay
488,24.400114457490529
528,24.399917597890576
568,24.397170866466675
2,1, 7,21, 0, 2, 0.00,60.00,SummerDesignDay
8,19.243988037109376
10,157534404.95202969
925,0.0
2,1, 7,21, 0, 2, 0.00,60.00,SummerDesignDay
488,24.313101340443735
528,24.39996671440564
568,24.397659607687339
2,1, 7,21, 0, 3, 0.00,60.00,SummerDesignDay
8,18.96499632356402
10,153089749.74939544
925,0.0
2,1, 7,21, 0, 3, 0.00,60.00,SummerDesignDay
488,24.18022923042038
528,24.399984131181275
568,24.398010986338606
2,1, 7,21, 0, 4, 0.00,60.00,SummerDesignDay
8,18.685989379882814
10,149795085.6861652
925,0.0
2,1, 7,21, 0, 4, 0.00,60.00,SummerDesignDay
488,24.04661975319158
528,24.399988114208179
568,24.398272971405928
2,1, 7,21, 0, 5, 0.00,60.00,SummerDesignDay
8,18.49999810986028
10,151422869.53529877
925,0.0
2,1, 7,21, 0, 5, 0.00,60.00,SummerDesignDay
488,23.958582753447595
528,24.399984580888913
568,24.398448746318125
2,1, 7,21, 0, 6, 0.00,60.00,SummerDesignDay
8,18.685989379882814
10,150167370.45076905
925,0.0
2,1, 7,21, 0, 6, 0.00,60.00,SummerDesignDay
488,24.210244533931289
528,24.399848479109055
568,24.398226831642864
2,1, 7,21, 0, 7, 0.00,60.00,SummerDesignDay
8,19.336990356445314
10,231180874.55908499
925,0.0
2,1, 7,21, 0, 7, 0.00,60.00,SummerDesignDay
488,24.34103278918272
528,24.399080761752449
568,24.397374381975348
2,1, 7,21, 0, 8, 0.00,60.00,SummerDesignDay
8,20.917992548817627
10,314168313.056193
925,0.0
2,1, 7,21, 0, 8, 0.00,60.00,SummerDesignDay
488,24.380127989018484
528,24.397547734118633
568,24.395858054362337
2,1, 7,21, 0, 9, 0.00,60.00,SummerDesignDay
8,22.420023807696297
10,275710951.400653
925,0.0
2,1, 7,21, 0, 9, 0.00,60.00,SummerDesignDay
488,24.391563264852456
528,24.39628060569062
568,24.393955171641936
2,1, 7,21, 0,10, 0.00,60.00,SummerDesignDay
8,22.854695006230427
10,287108232.17312446
925,0.0
2,1, 7,21, 0,10, 0.00,60.00,SummerDesignDay
488,24.39435441421601
528,24.395095628438729
568,24.39162278935842
2,1, 7,21, 0,11, 0.00,60.00,SummerDesignDay
8,23.232104587122938
10,295736099.9301525
925,0.0
2,1, 7,21, 0,11, 0.00,60.00,SummerDesignDay
488,24.395994719090888
528,24.39483700538873
568,24.389975451287176
2,1, 7,21, 0,12, 0.00,60.00,SummerDesignDay
8,23.480593542408348
10,296657628.3945132
925,0.0
2,1, 7,21, 0,12, 0.00,60.00,SummerDesignDay
488,24.397694809066459
528,24.395483344845425
568,24.389404986700514
2,1, 7,21, 0,13, 0.00,60.00,SummerDesignDay
8,23.677626430315248
10,297450832.24812176
925,0.0
2,1, 7,21, 0,13, 0.00,60.00,SummerDesignDay
488,24.398684218680285
528,24.396085906204886
568,24.389160206363309
2,1, 7,21, 0,14, 0.00,60.00,SummerDesignDay
8,23.799986320868798
10,248432272.79436396
925,0.0
2,1, 7,21, 0,14, 0.00,60.00,SummerDesignDay
488,24.39904273782679
528,24.396396011574728
568,24.38894014179901
2,1, 7,21, 0,15, 0.00,60.00,SummerDesignDay
8,23.799986320868798
10,296797430.4742726
925,0.0
2,1, 7,21, 0,15, 0.00,60.00,SummerDesignDay
488,24.399206320415169
528,24.396602545398915
568,24.388916053183569
2,1, 7,21, 0,16, 0.00,60.00,SummerDesignDay
8,23.653081835774505
10,300033554.5828923
925,0.0
2,1, 7,21, 0,16, 0.00,60.00,SummerDesignDay
488,24.399142541394327
528,24.3966092406688
568,24.38902371474193
2,1, 7,21, 0,17, 0.00,60.00,SummerDesignDay
8,23.4558543827806
10,265961020.45881573
925,0.0
2,1, 7,21, 0,17, 0.00,60.00,SummerDesignDay
488,24.398423870712997
528,24.396057444853939
568,24.388870559039316
2,1, 7,21, 0,18, 0.00,60.00,SummerDesignDay
8,23.207119318496696
10,335087790.88372996
925,0.0
2,1, 7,21, 0,18, 0.00,60.00,SummerDesignDay
488,24.39756073980314
528,24.395381014400568
568,24.38881851935885
2,1, 7,21, 0,19, 0.00,60.00,SummerDesignDay
8,22.82933132300861
10,337034188.53892496
925,0.0
2,1, 7,21, 0,19, 0.00,60.00,SummerDesignDay
488,24.398300493978124
528,24.395929078655308
568,24.389898846281885
2,1, 7,21, 0,20, 0.00,60.00,SummerDesignDay
8,22.548645905899027
10,350924794.8889279
925,0.0
2,1, 7,21, 0,20, 0.00,60.00,SummerDesignDay
488,24.40033576296997
528,24.397966484015446
568,24.392304541746076
2,1, 7,21, 0,21, 0.00,60.00,SummerDesignDay
8,22.312987690310977
10,309511529.0802719
925,0.0
2,1, 7,21, 0,21, 0.00,60.00,SummerDesignDay
488,24.400998224882984
528,24.399047688366779
568,24.39392493198303
2,1, 7,21, 0,22, 0.00,60.00,SummerDesignDay
8,21.475995587251039
10,238878909.256838
925,0.0
2,1, 7,21, 0,22, 0.00,60.00,SummerDesignDay
488,24.400802974863504
528,24.399355403954347
568,24.394859092075813
2,1, 7,21, 0,23, 0.00,60.00,SummerDesignDay
8,20.824995071347869
10,261421150.19356434
925,0.0
2,1, 7,21, 0,23, 0.00,60.00,SummerDesignDay
488,24.400575216105616
528,24.399607442946299
568,24.39570968728117
2,1, 7,21, 0,24, 0.00,60.00,SummerDesignDay
8,20.173995840857065
10,236414668.450966
925,0.0
2,1, 7,21, 0,24, 0.00,60.00,SummerDesignDay
488,24.4003362314746
528,24.399794840124064
568,24.39649586315471
3,1, 7,21, 0,SummerDesignDay
489,62.25961640123804,54.28116154062079,19,60,73.01245965976013, 5,60
529,59.148260120336889,53.61851977945672,19,60,65.94702797457089, 6,60
569,58.99382665608056,56.86316565391992,18,60,60.64361322529472,24,60
4,1, 7
7,22.812875000000003,18.5,21, 5,60,27.8,21,14,60
1,BUFFALO NIAGARA INTL AP ANN HTG 99.6% CONDNS DB,  42.93, -78.73,  -5.00, 215.00
2,1, 1,21, 0, 1, 0.00,60.00,WinterDesignDay
8,-16.3
10,128145772.03994425
925,460392628.4377639
2,1, 1,21, 0, 1, 0.00,60.00,WinterDesignDay
488,21.70159651151582
528,21.701420482621335
568,21.702299824777137
2,1, 1,21, 0, 2, 0.00,60.00,WinterDesignDay
8,-16.3
10,125625666.27839817
925,464839128.42982438
2,1, 1,21, 0, 2, 0.00,60.00,WinterDesignDay
488,21.70179223751828
528,21.701546327217728
568,21.7022552779898
2,1, 1,21, 0, 3, 0.00,60.00,WinterDesignDay
8,-16.3
10,124366343.7665606
925,467496109.5711131
2,1, 1,21, 0, 3, 0.00,60.00,WinterDesignDay
488,21.701898202800814
528,21.701646242658638
568,21.702265651485268
2,1, 1,21, 0, 4, 0.00,60.00,WinterDesignDay
8,-16.3
10,123737456.4219305
925,469201265.99195119
2,1, 1,21, 0, 4, 0.00,60.00,WinterDesignDay
488,21.701958440269605
528,21.701720402001354
568,21.702288230697204
2,1, 1,21, 0, 5, 0.00,60.00,WinterDesignDay
8,-16.3
10,126831353.05223471
925,468029730.248833
2,1, 1,21, 0, 5, 0.00,60.00,WinterDesignDay
488,21.70192874632179
528,21.70173550055183
568,21.702290237303499
2,1, 1,21, 0, 6, 0.00,60.00,WinterDesignDay
8,-16.3
10,135399563.6672929
925,461613921.6657069
2,1, 1,21, 0, 6, 0.00,60.00,WinterDesignDay
488,21.701744478706517
528,21.701645171140958
568,21.70224004639308
2,1, 1,21, 0, 7, 0.00,60.00,WinterDesignDay
8,-16.3
10,253731241.66738633
925,453828359.7431862
2,1, 1,21, 0, 7, 0.00,60.00,WinterDesignDay
488,21.701518049223937
528,21.701502645298043
568,21.702159234496784
2,1, 1,21, 0, 8, 0.00,60.00,WinterDesignDay
8,-16.3
10,206634670.02440975
925,450483188.6964619
2,1, 1,21, 0, 8, 0.00,60.00,WinterDesignDay
488,21.701399082020488
528,21.70140884424147
568,21.702099273124217
2,1, 1,21, 0, 9, 0.00,60.00,WinterDesignDay
8,-16.3
10,236294546.06540714
925,462952602.6366353
2,1, 1,21, 0, 9, 0.00,60.00,WinterDesignDay
488,21.701662844101425
528,21.701562564145147
568,21.70217233982396
2,1, 1,21, 0,10, 0.00,60.00,WinterDesignDay
8,-16.3
10,180593049.81155557
925,466788047.11557337
2,1, 1,21, 0,10, 0.00,60.00,WinterDesignDay
488,21.70182137191792
528,21.701663228772789
568,21.70223077762384
2,1, 1,21, 0,11, 0.00,60.00,WinterDesignDay
8,-16.3
10,229764591.42014349
925,466028274.94257709
2,1, 1,21, 0,11, 0.00,60.00,WinterDesignDay
488,21.701806771061177
528,21.70166901066016
568,21.70224438404865
2,1, 1,21, 0,12, 0.00,60.00,WinterDesignDay
8,-16.3
10,184215872.93541775
925,465660822.1835551
2,1, 1,21, 0,12, 0.00,60.00,WinterDesignDay
488,21.70176029109143
528,21.7016499772524
568,21.70224264985352
2,1, 1,21, 0,13, 0.00,60.00,WinterDesignDay
8,-16.3
10,132607798.21511418
925,466314537.3997516
2,1, 1,21, 0,13, 0.00,60.00,WinterDesignDay
488,21.70173990994898
528,21.701642597833215
568,21.702244309991788
2,1, 1,21, 0,14, 0.00,60.00,WinterDesignDay
8,-16.3
10,173657898.4396186
925,468128318.4134863
2,1, 1,21, 0,14, 0.00,60.00,WinterDesignDay
488,21.701763240267025
528,21.701660523168749
568,21.702257877717867
2,1, 1,21, 0,15, 0.00,60.00,WinterDesignDay
8,-16.3
10,176086099.9441336
925,468915421.4449393
2,1, 1,21, 0,15, 0.00,60.00,WinterDesignDay
488,21.70177303364711
528,21.70167187255301
568,21.702268408879747
2,1, 1,21, 0,16, 0.00,60.00,WinterDesignDay
8,-16.3
10,180718692.76639209
925,465849537.6343436
2,1, 1,21, 0,16, 0.00,60.00,WinterDesignDay
488,21.701676737241504
528,21.701618109192578
568,21.702245377141599
2,1, 1,21, 0,17, 0.00,60.00,WinterDesignDay
8,-16.3
10,194281740.67966715
925,453647860.67118367
2,1, 1,21, 0,17, 0.00,60.00,WinterDesignDay
488,21.70135606778646
528,21.70140845010963
568,21.70213647130645
2,1, 1,21, 0,18, 0.00,60.00,WinterDesignDay
8,-16.3
10,232099240.6458037
925,432431564.5890066
2,1, 1,21, 0,18, 0.00,60.00,WinterDesignDay
488,21.70091467479751
528,21.701074703181509
568,21.701933769546345
2,1, 1,21, 0,19, 0.00,60.00,WinterDesignDay
8,-16.3
10,238537355.78891183
925,419002534.909564
2,1, 1,21, 0,19, 0.00,60.00,WinterDesignDay
488,21.70065548957072
528,21.702027837748135
568,21.704141257164115
2,1, 1,21, 0,20, 0.00,60.00,WinterDesignDay
8,-16.3
10,290304276.1319993
925,418259250.0279659
2,1, 1,21, 0,20, 0.00,60.00,WinterDesignDay
488,21.70061034638838
528,21.702296695256164
568,21.704989728791955
2,1, 1,21, 0,21, 0.00,60.00,WinterDesignDay
8,-16.3
10,234554012.983841
925,418773867.1938908
2,1, 1,21, 0,21, 0.00,60.00,WinterDesignDay
488,21.70063382404164
528,21.702393879608996
568,21.705333870247065
2,1, 1,21, 0,22, 0.00,60.00,WinterDesignDay
8,-16.3
10,223221978.93280594
925,422206991.385242
2,1, 1,21, 0,22, 0.00,60.00,WinterDesignDay
488,21.700702226521398
528,21.702512832722929
568,21.705536599731727
2,1, 1,21, 0,23, 0.00,60.00,WinterDesignDay
8,-16.3
10,206055447.5085548
925,435914953.85205987
2,1, 1,21, 0,23, 0.00,60.00,WinterDesignDay
488,21.700935212329669
528,21.701475256787576
568,21.703306864271128
2,1, 1,21, 0,24, 0.00,60.00,WinterDesignDay
8,-16.3
10,142057755.08630104
925,448988641.901113
2,1, 1,21, 0,24, 0.00,60.00,WinterDesignDay
488,21.701250012794295
528,21.701301480229547
568,21.702518769399608
3,1, 1,21, 0,WinterDesignDay
489,7.940637880084984,7.02393030479682,17,60,8.747791856444924, 7,60
529,7.251778353550471,6.628284403062182,17,60,7.80450040213864, 7,60
569,6.119898475886603,5.902145724293579,17,60,6.305809586764176, 7,60
4,1, 1
7,-16.300000000000009,-16.3,21, 1,60,-16.3,21, 1,60
End of Data
 Number of Records Written=         444
