Program Version,EnergyPlus, Version 9.1.0-08d2e308bb, YMD=2019.12.31 13:02
1,5,Environment Title[],Latitude[deg],Longitude[deg],Time Zone[],Elevation[m]
2,8,Day of Simulation[],Month[],Day of Month[],DST Indicator[1=yes 0=no],Hour[],StartMinute[],EndMinute[],DayType
3,5,Cumulative Day of Simulation[],Month[],Day of Month[],DST Indicator[1=yes 0=no],DayType  ! When Daily Report Variables Requested
4,2,Cumulative Days of Simulation[],Month[]  ! When Monthly Report Variables Requested
5,1,Cumulative Days of Simulation[] ! When Run Period Report Variables Requested
6,1,Calendar Year of Simulation[] ! When Annual Report Variables Requested
7,9,Environment,Site Outdoor Air Drybulb Temperature [C] !Monthly [Value,Min,Day,Hour,Minute,Max,Day,Hour,Minute]
8,1,Environment,Site Outdoor Air Wetbulb Temperature [C] !TimeStep
488,7,BUILDING STORY 1 THERMALZONE,Zone Air Relative Humidity [%] !Daily [Value,Min,Hour,Minute,Max,Hour,Minute]
527,7,BUILDING STORY 2 THERMALZONE,Zone Air Relative Humidity [%] !Daily [Value,Min,Hour,Minute,Max,Hour,Minute]
566,7,BUILDING STORY 3 THERMALZONE,Zone Air Relative Humidity [%] !Daily [Value,Min,Hour,Minute,Max,Hour,Minute]
972,1,Heating:Electricity [J] !Hourly
947,1,Heating:Gas [J] !Hourly
826,1,Cooling:Electricity [J] !Hourly
47,1,InteriorLights:Electricity [J] !Hourly
843,1,ExteriorLights:Electricity [J] !Hourly
139,1,InteriorEquipment:Electricity [J] !Hourly
732,1,Fans:Electricity [J] !Hourly
997,1,Pumps:Electricity [J] !Hourly
279,1,WaterSystems:Electricity [J] !Hourly
330,1,WaterSystems:Water [m3] !Hourly
11,1,Electricity:Facility [J] !Hourly
923,1,Gas:Facility [J] !Hourly
306,1,Water:Facility [m3] !Hourly
10,1,Electricity:Facility [J] !TimeStep
922,1,Gas:Facility [J] !TimeStep
End of Data Dictionary
1,RUN PERIOD 1,  42.93, -78.73,  -5.00, 215.00
2,1, 1, 1, 0, 1, 0.00,60.00,Monday
8,-1.1802458087361237
10,108035962.39941019
922,199460693.12414456
2,1, 1, 1, 0, 1, 0.00,60.00,Monday
11,108035962.39941019
47,7997754.322045701
139,29142546.20624856
279,0.0
306,0.03161575921971629
330,0.03161575921971629
732,54883133.01365401
826,0.0
843,15805220.945559774
923,199460693.12414456
947,199460693.12414456
972,0.0
997,207307.91190215015
2,1, 1, 1, 0, 2, 0.00,60.00,Monday
8,-1.1802458087361237
10,105546131.8099825
922,232271210.11570616
2,1, 1, 1, 0, 2, 0.00,60.00,Monday
11,105546131.8099825
47,7997754.322045701
139,26612061.47294426
279,0.0
306,0.015807879609858145
330,0.015807879609858145
732,54883133.01365401
826,0.0
843,15805220.945559774
923,232271210.11570616
947,232271210.11570616
972,0.0
997,247962.05577875817
2,1, 1, 1, 0, 3, 0.00,60.00,Monday
8,-1.87387394903547
10,104242576.2362779
922,201729694.62423275
2,1, 1, 1, 0, 3, 0.00,60.00,Monday
11,104242576.2362779
47,7997754.322045701
139,25346819.10629212
279,0.0
306,0.003951969902464536
330,0.003951969902464536
732,54883133.01365401
826,0.0
843,15805220.945559774
923,201729694.62423275
947,201729694.62423275
972,0.0
997,209648.848726284
2,1, 1, 1, 0, 4, 0.00,60.00,Monday
8,-1.5103272887722317
10,103532109.20436062
922,136828010.98792828
2,1, 1, 1, 0, 4, 0.00,60.00,Monday
11,103532109.20436062
47,7997754.322045701
139,24714197.922966049
279,0.0
306,0.003951969902464536
330,0.003951969902464536
732,54883133.01365401
826,0.0
843,15805220.945559774
923,136828010.98792828
947,136828010.98792828
972,0.0
997,131803.00013508043
2,1, 1, 1, 0, 5, 0.00,60.00,Monday
8,-1.665952381653312
10,106691231.53316503
922,194292427.92835874
2,1, 1, 1, 0, 5, 0.00,60.00,Monday
11,106691231.53316503
47,11093867.83093701
139,24714197.922966049
279,0.0
306,0.015807879609858145
330,0.015807879609858145
732,54883133.01365399
826,0.0
843,15805220.945559774
923,194292427.92835874
947,194292427.92835874
972,0.0
997,194811.82004819969
2,1, 1, 1, 0, 6, 0.00,60.00,Monday
8,-1.3944780310032846
10,115196333.42093791
922,125976783.55307009
2,1, 1, 1, 0, 6, 0.00,60.00,Monday
11,115196333.42093791
47,16512066.642499425
139,27877303.839596414
279,0.0
306,0.10670318736654248
330,0.10670318736654248
732,54883133.01365401
826,0.0
843,15805220.945559774
923,125976783.55307009
947,125976783.55307009
972,0.0
997,118608.9796282809
2,1, 1, 1, 0, 7, 0.00,60.00,Monday
8,-1.1805889590406258
10,234953757.98282684
922,156728091.42403824
2,1, 1, 1, 0, 7, 0.00,60.00,Monday
11,234953757.98282684
47,17286094.985521728
139,36524358.06243767
279,106915865.53548347
306,0.3714851708316664
330,0.3714851708316664
732,54883133.01365401
826,0.0
843,19195082.40692848
923,156728091.42403824
947,156728091.42403824
972,0.0
997,149223.97880148327
2,1, 1, 1, 0, 8, 0.00,60.00,Monday
8,-1.3944780310032846
10,190448247.09506644
922,166140880.61156509
2,1, 1, 1, 0, 8, 0.00,60.00,Monday
11,190448247.09506644
47,16512066.642499425
139,45912497.566536057
279,53785657.34715146
306,0.3951969902464536
330,0.3951969902464536
732,54883133.01365399
826,0.0
843,19195082.40692848
923,166140880.61156509
947,166140880.61156509
972,0.0
997,159810.11829705104
2,1, 1, 1, 0, 9, 0.00,60.00,Monday
8,-1.665952381653312
10,221413353.69496609
922,172020913.9400894
2,1, 1, 1, 0, 9, 0.00,60.00,Monday
11,221413353.69496609
47,13706614.392491255
139,45412157.43509294
279,107244356.78662223
306,0.3793891106365955
330,0.3793891106365955
732,54883133.01365401
826,0.0
843,0.0
923,172020913.9400894
947,172020913.9400894
972,0.0
997,167092.06710565889
2,1, 1, 1, 0,10, 0.00,60.00,Monday
8,-1.1802458087361237
10,164239765.00727449
922,140514228.90652684
2,1, 1, 1, 0,10, 0.00,60.00,Monday
11,164239765.00727449
47,12158557.56964455
139,44429840.36337802
279,52636137.81447802
306,0.33196547180702098
330,0.33196547180702098
732,54883133.01365401
826,0.0
843,0.0
923,140514228.90652684
947,140514228.90652684
972,0.0
997,132096.24611990289
2,1, 1, 1, 0,11, 0.00,60.00,Monday
8,-0.9849379844004382
10,164910439.3149088
922,152462365.48460696
2,1, 1, 1, 0,11, 0.00,60.00,Monday
11,164910439.3149088
47,12158557.56964455
139,45695082.73003016
279,52030019.088974688
306,0.30034971258730477
330,0.30034971258730477
732,54883133.01365401
826,0.0
843,0.0
923,152462365.48460696
947,152462365.48460696
972,0.0
997,143646.91260544255
2,1, 1, 1, 0,12, 0.00,60.00,Monday
8,-0.818433687998716
10,165122263.82616324
922,164096438.3873136
2,1, 1, 1, 0,12, 0.00,60.00,Monday
11,165122263.82616324
47,12158557.56964455
139,47011672.14330676
279,50912022.819264087
306,0.24107016405033669
330,0.24107016405033669
732,54883133.013654
826,0.0
843,0.0
923,164096438.3873136
947,164096438.3873136
972,0.0
997,156878.28029384613
2,1, 1, 1, 0,13, 0.00,60.00,Monday
8,-0.598194072481827
10,163377409.37055046
922,122192470.58120078
2,1, 1, 1, 0,13, 0.00,60.00,Monday
11,163377409.37055046
47,11795676.102762018
139,46256397.69514882
279,50330391.68502641
306,0.20945440483062043
330,0.20945440483062043
732,54883133.01365401
826,0.0
843,0.0
923,122192470.58120078
947,122192470.58120078
972,0.0
997,111810.87395921548
2,1, 1, 1, 0,14, 0.00,60.00,Monday
8,-0.2717280594017997
10,160845068.86061505
922,120547143.5838666
2,1, 1, 1, 0,14, 0.00,60.00,Monday
11,160845068.86061505
47,12158557.56964455
139,43797219.18005194
279,49897729.80477889
306,0.1857425854158332
330,0.1857425854158332
732,54883133.01365401
826,0.0
843,0.0
923,120547143.5838666
947,120547143.5838666
972,0.0
997,108429.29248567354
2,1, 1, 1, 0,15, 0.00,60.00,Monday
8,-0.04571975547003023
10,159774841.0115741
922,112947498.27487092
2,1, 1, 1, 0,15, 0.00,60.00,Monday
11,159774841.0115741
47,12158557.56964455
139,43164597.996725868
279,49468383.13661698
306,0.16203076600104597
330,0.16203076600104597
732,54883133.01365401
826,0.0
843,0.0
923,112947498.27487092
947,112947498.27487092
972,0.0
997,100169.29493268865
2,1, 1, 1, 0,16, 0.00,60.00,Monday
8,-0.04535544602759805
10,165389440.3959613
922,143564712.729509
2,1, 1, 1, 0,16, 0.00,60.00,Monday
11,165389440.3959613
47,14480642.872315659
139,46017853.240824047
279,49876291.377095889
306,0.1857425854158332
330,0.1857425854158332
732,54883133.01365401
826,0.0
843,0.0
923,143564712.729509
947,143564712.729509
972,0.0
997,131519.89207173134
2,1, 1, 1, 0,17, 0.00,60.00,Monday
8,-0.04535544602759805
10,180018791.83122168
922,142885711.28586189
2,1, 1, 1, 0,17, 0.00,60.00,Monday
11,180018791.83122168
47,19898841.547075973
139,54665135.02756995
279,50439426.534717198
306,0.21735834463554949
330,0.21735834463554949
732,54883133.01365401
826,0.0
843,0.0
923,142885711.28586189
947,142885711.28586189
972,0.0
997,132255.7082045763
2,1, 1, 1, 0,18, 0.00,60.00,Monday
8,-0.4337098548147795
10,215350497.88200066
922,142037910.24507905
2,1, 1, 1, 0,18, 0.00,60.00,Monday
11,215350497.88200066
47,21930265.317259738
139,67438109.10339627
279,51772067.83181175
306,0.2884938028799111
330,0.2884938028799111
732,54883133.01365401
826,0.0
843,19195082.40692848
923,142037910.24507905
947,142037910.24507905
972,0.0
997,131840.20895043223
2,1, 1, 1, 0,19, 0.00,60.00,Monday
8,-1.0213911744465183
10,218336017.44526685
922,184803819.7047853
2,1, 1, 1, 0,19, 0.00,60.00,Monday
11,218336017.44526685
47,27348464.128822157
139,63936711.28918258
279,52791014.32874682
306,0.33986941161195008
330,0.33986941161195008
732,54883133.01365401
826,0.0
843,19195082.40692848
923,184803819.7047853
947,184803819.7047853
972,0.0
997,181612.2779328355
2,1, 1, 1, 0,20, 0.00,60.00,Monday
8,-1.1809288569695527
10,228835029.26174347
922,172572666.91361059
2,1, 1, 1, 0,20, 0.00,60.00,Monday
11,228835029.26174347
47,31218606.117537869
139,59508363.00590007
279,63859474.42884656
306,0.3240615320020919
330,0.3240615320020919
732,54883133.013654
826,0.0
843,19195082.40692848
923,172572666.91361059
947,172572666.91361059
972,0.0
997,170370.2888764888
2,1, 1, 1, 0,21, 0.00,60.00,Monday
8,-1.5108130242800387
10,256626315.95997919
922,154402629.18566499
2,1, 1, 1, 0,21, 0.00,60.00,Monday
11,256626315.95997919
47,31218606.117537869
139,58519533.57642333
279,92661245.04473344
306,0.2963977426848402
330,0.2963977426848402
732,54883133.01365401
826,0.0
843,19195082.40692848
923,154402629.18566499
947,154402629.18566499
972,0.0
997,148715.8007020817
2,1, 1, 1, 0,22, 0.00,60.00,Monday
8,-1.6662902470607773
10,203056391.6493487
922,177131081.6574889
2,1, 1, 1, 0,22, 0.00,60.00,Monday
11,203056391.6493487
47,23478322.140106445
139,54447393.53929148
279,50878704.27387778
306,0.24107016405033669
330,0.24107016405033669
732,54883133.01365401
826,0.0
843,19195082.40692848
923,177131081.6574889
947,177131081.6574889
972,0.0
997,173756.2754905541
2,1, 1, 1, 0,23, 0.00,60.00,Monday
8,-1.874803504688023
10,185953276.4391636
922,234546957.14606027
2,1, 1, 1, 0,23, 0.00,60.00,Monday
11,185953276.4391636
47,15738038.16267502
139,45590696.97272646
279,50297412.37358183
306,0.20945440483062043
330,0.20945440483062043
732,54883133.01365401
826,0.0
843,19195082.40692848
923,234546957.14606027
947,234546957.14606027
972,0.0
997,248913.5095978001
2,1, 1, 1, 0,24, 0.00,60.00,Monday
8,-1.665952381653312
10,122013342.55921188
922,230646488.8213719
2,1, 1, 1, 0,24, 0.00,60.00,Monday
11,122013342.55921188
47,10319839.487914708
139,37366621.5894875
279,0.0
306,0.11460712717147152
330,0.11460712717147152
732,54883133.01365401
826,0.0
843,19195082.40692848
923,230646488.8213719
947,230646488.8213719
972,0.0
997,248666.06122716639
3,1, 1, 1, 0,Monday
488,22.390576617860935,21.715605346993056,13,60,22.826967280547316, 7,60
527,21.935723419768349,21.480105033465756,13,60,22.260278700197444, 7,60
566,20.749261642234236,20.4358598329462,12,60,21.30516464533031,19,60
2,2, 1, 2, 0, 1, 0.00,60.00,Tuesday
8,-2.450886200756528
10,108052042.4436426
922,212100029.04104666
2,2, 1, 2, 0, 1, 0.00,60.00,Tuesday
11,108052042.4436426
47,7997754.322045701
139,29142546.20624856
279,0.0
306,0.03161575921971629
330,0.03161575921971629
732,54883133.01365401
826,0.0
843,15805220.945559774
923,212100029.04104666
947,212100029.04104666
972,0.0
997,223387.95613457275
2,2, 1, 2, 0, 2, 0.00,60.00,Tuesday
8,-2.248902511226617
10,105648505.88200829
922,300735179.9484973
2,2, 1, 2, 0, 2, 0.00,60.00,Tuesday
11,105648505.88200829
47,7997754.322045701
139,26612061.47294426
279,0.0
306,0.015807879609858145
330,0.015807879609858145
732,54883133.01365401
826,0.0
843,15805220.945559774
923,300735179.9484973
947,300735179.9484973
972,0.0
997,350336.1278045506
2,2, 1, 2, 0, 3, 0.00,60.00,Tuesday
8,-2.248902511226617
10,104326864.14448428
922,258408273.8102096
2,2, 1, 2, 0, 3, 0.00,60.00,Tuesday
11,104326864.14448428
47,7997754.322045701
139,25346819.10629212
279,0.0
306,0.003951969902464536
330,0.003951969902464536
732,54883133.01365401
826,0.0
843,15805220.945559774
923,258408273.8102096
947,258408273.8102096
972,0.0
997,293936.75693267935
2,2, 1, 2, 0, 4, 0.00,60.00,Tuesday
8,-1.665952381653312
10,103686979.20125301
922,255787803.88382185
2,2, 1, 2, 0, 4, 0.00,60.00,Tuesday
11,103686979.20125301
47,7997754.322045701
139,24714197.922966049
279,0.0
306,0.003951969902464536
330,0.003951969902464536
732,54883133.01365401
826,0.0
843,15805220.945559774
923,255787803.88382185
947,255787803.88382185
972,0.0
997,286672.99702747716
2,2, 1, 2, 0, 5, 0.00,60.00,Tuesday
8,-2.8216230582487005
10,106772667.84611784
922,248873926.1668235
2,2, 1, 2, 0, 5, 0.00,60.00,Tuesday
11,106772667.84611784
47,11093867.83093701
139,24714197.922966049
279,0.0
306,0.015807879609858145
330,0.015807879609858145
732,54883133.01365401
826,0.0
843,15805220.945559774
923,248873926.1668235
947,248873926.1668235
972,0.0
997,276248.13300101915
2,2, 1, 2, 0, 6, 0.00,60.00,Tuesday
8,-1.665952381653312
10,163862955.74054013
922,236299214.40679185
2,2, 1, 2, 0, 6, 0.00,60.00,Tuesday
11,163862955.74054013
47,16512066.642499425
139,27877303.839596414
279,48527601.200052637
306,0.10670318736654248
330,0.10670318736654248
732,54883133.01365401
826,0.0
843,15805220.945559774
923,236299214.40679185
947,236299214.40679185
972,0.0
997,257630.09917785697
2,2, 1, 2, 0, 7, 0.00,60.00,Tuesday
8,-1.665952381653312
10,181600071.68004496
922,240631711.62012927
2,2, 1, 2, 0, 7, 0.00,60.00,Tuesday
11,181600071.68004496
47,17286094.985521728
139,36524358.06243767
279,53448923.040361348
306,0.3714851708316664
330,0.3714851708316664
732,54883133.013654
826,0.0
843,19195082.40692848
923,240631711.62012927
947,240631711.62012927
972,0.0
997,262480.17114172017
2,2, 1, 2, 0, 8, 0.00,60.00,Tuesday
8,-1.66561355779768
10,244391313.48260839
922,221498155.72677724
2,2, 1, 2, 0, 8, 0.00,60.00,Tuesday
11,244391313.48260839
47,16512066.642499425
139,45912497.566536057
279,107652161.40102154
306,0.3951969902464536
330,0.3951969902464536
732,54883133.01365401
826,0.0
843,19195082.40692848
923,221498155.72677724
947,221498155.72677724
972,0.0
997,236372.4519689279
2,2, 1, 2, 0, 9, 0.00,60.00,Tuesday
8,-1.66561355779768
10,170598324.00030834
922,211482403.50430376
2,2, 1, 2, 0, 9, 0.00,60.00,Tuesday
11,170598324.00030834
47,13706614.392491255
139,45412157.43509294
279,56375104.50211138
306,0.3793891106365955
330,0.3793891106365955
732,54883133.01365401
826,0.0
843,0.0
923,211482403.50430376
947,211482403.50430376
972,0.0
997,221314.65695877095
2,2, 1, 2, 0,10, 0.00,60.00,Tuesday
8,-1.1802458087361237
10,214318177.45453767
922,209654102.63630376
2,2, 1, 2, 0,10, 0.00,60.00,Tuesday
11,214318177.45453767
47,12158557.56964455
139,44429840.36337802
279,102628684.46420335
306,0.33196547180702098
330,0.33196547180702098
732,54883133.01365401
826,0.0
843,0.0
923,209654102.63630376
947,209654102.63630376
972,0.0
997,217962.04365773905
2,2, 1, 2, 0,11, 0.00,60.00,Tuesday
8,-1.1799047350000767
10,164952315.84638939
922,192387802.9012571
2,2, 1, 2, 0,11, 0.00,60.00,Tuesday
11,164952315.84638939
47,12158557.56964455
139,45695082.73003016
279,52019674.0473413
306,0.30034971258730477
330,0.30034971258730477
732,54883133.01365401
826,0.0
843,0.0
923,192387802.9012571
947,192387802.9012571
972,0.0
997,195868.48571936863
2,2, 1, 2, 0,12, 0.00,60.00,Tuesday
8,-0.817959937909318
10,165103986.6358185
922,155004751.9014052
2,2, 1, 2, 0,12, 0.00,60.00,Tuesday
11,165103986.6358185
47,12158557.56964455
139,47011672.14330676
279,50900417.7631102
306,0.24107016405033669
330,0.24107016405033669
732,54883133.01365401
826,0.0
843,0.0
923,155004751.9014052
947,155004751.9014052
972,0.0
997,150206.14610301166
2,2, 1, 2, 0,13, 0.00,60.00,Tuesday
8,-0.9843616670581066
10,163398545.968563
922,152665472.64883168
2,2, 1, 2, 0,13, 0.00,60.00,Tuesday
11,163398545.968563
47,11795676.102762018
139,46256397.69514882
279,50318104.65750706
306,0.20945440483062043
330,0.20945440483062043
732,54883133.01365401
826,0.0
843,0.0
923,152665472.64883168
947,152665472.64883168
972,0.0
997,145234.49949109238
2,2, 1, 2, 0,14, 0.00,60.00,Tuesday
8,-0.817959937909318
10,160884164.4205458
922,166568683.1081531
2,2, 1, 2, 0,14, 0.00,60.00,Tuesday
11,160884164.4205458
47,12158557.56964455
139,43797219.18005194
279,49884875.049440819
306,0.1857425854158332
330,0.1857425854158332
732,54883133.01365401
826,0.0
843,0.0
923,166568683.1081531
947,166568683.1081531
972,0.0
997,160379.60775447807
2,2, 1, 2, 0,15, 0.00,60.00,Tuesday
8,-0.5975033634303576
10,110344419.04945141
922,146335445.66757263
2,2, 1, 2, 0,15, 0.00,60.00,Tuesday
11,110344419.04945141
47,12158557.56964455
139,43164597.996725868
279,0.0
306,0.16203076600104597
330,0.16203076600104597
732,54883133.01365401
826,0.0
843,0.0
923,146335445.66757263
947,146335445.66757263
972,0.0
997,138130.4694269891
2,2, 1, 2, 0,16, 0.00,60.00,Tuesday
8,-0.5971565962370674
10,165435393.90799207
922,155705794.59695
2,2, 1, 2, 0,16, 0.00,60.00,Tuesday
11,165435393.90799207
47,14480642.872315659
139,46017853.240824047
279,49906184.73244672
306,0.1857425854158332
330,0.1857425854158332
732,54883133.013654
826,0.0
843,0.0
923,155705794.59695
947,155705794.59695
972,0.0
997,147580.04875165734
2,2, 1, 2, 0,17, 0.00,60.00,Tuesday
8,-0.5971565962370674
10,180079610.19597248
922,167896852.14301855
2,2, 1, 2, 0,17, 0.00,60.00,Tuesday
11,180079610.19597248
47,19898841.547075973
139,54665135.02756995
279,50470665.966209989
306,0.21735834463554949
330,0.21735834463554949
732,54883133.01365401
826,0.0
843,0.0
923,167896852.14301855
947,167896852.14301855
972,0.0
997,161834.64146258744
2,2, 1, 2, 0,18, 0.00,60.00,Tuesday
8,-1.1795657539051999
10,215412933.5577444
922,165697717.51071174
2,2, 1, 2, 0,18, 0.00,60.00,Tuesday
11,215412933.5577444
47,21930265.317259738
139,67438109.10339627
279,51806071.91549742
306,0.2884938028799111
330,0.2884938028799111
732,54883133.01365401
826,0.0
843,19195082.40692848
923,165697717.51071174
947,165697717.51071174
972,0.0
997,160271.80100856524
2,2, 1, 2, 0,19, 0.00,60.00,Tuesday
8,-1.020404023167408
10,271156051.2616379
922,146558522.79321368
2,2, 1, 2, 0,19, 0.00,60.00,Tuesday
11,271156051.2616379
47,27348464.128822157
139,63936711.28918258
279,105653789.46217349
306,0.33986941161195008
330,0.33986941161195008
732,54883133.01365401
826,0.0
843,19195082.40692848
923,146558522.79321368
947,146558522.79321368
972,0.0
997,138870.96087726658
2,2, 1, 2, 0,20, 0.00,60.00,Tuesday
8,-1.6649382965486524
10,217468031.74857254
922,183785814.98517717
2,2, 1, 2, 0,20, 0.00,60.00,Tuesday
11,217468031.74857254
47,31218606.117537869
139,59508363.00590007
279,52481642.843717899
306,0.3240615320020919
330,0.3240615320020919
732,54883133.01365401
826,0.0
843,19195082.40692848
923,183785814.98517717
947,183785814.98517717
972,0.0
997,181204.36083422468
2,2, 1, 2, 0,21, 0.00,60.00,Tuesday
8,-2.0970481657497048
10,215914558.23999084
922,150761678.7458704
2,2, 1, 2, 0,21, 0.00,60.00,Tuesday
11,215914558.23999084
47,31218606.117537869
139,58519533.57642333
279,51953702.79008089
306,0.2963977426848402
330,0.2963977426848402
732,54883133.01365401
826,0.0
843,19195082.40692848
923,150761678.7458704
947,150761678.7458704
972,0.0
997,144500.33536628387
2,2, 1, 2, 0,22, 0.00,60.00,Tuesday
8,-2.448595400822192
10,203117594.51974277
922,201503081.99342797
2,2, 1, 2, 0,22, 0.00,60.00,Tuesday
11,203117594.51974277
47,23478322.140106445
139,54447393.53929148
279,50910388.132355328
306,0.24107016405033669
330,0.24107016405033669
732,54883133.01365401
826,0.0
843,19195082.40692848
923,201503081.99342797
947,201503081.99342797
972,0.0
997,203275.28740705356
2,2, 1, 2, 0,23, 0.00,60.00,Tuesday
8,-3.0766921149082706
10,185949172.787562
922,207691053.9244747
2,2, 1, 2, 0,23, 0.00,60.00,Tuesday
11,185949172.787562
47,15738038.16267502
139,45590696.97272646
279,50327972.94466999
306,0.20945440483062043
330,0.20945440483062043
732,54883133.01365401
826,0.0
843,19195082.40692848
923,207691053.9244747
947,207691053.9244747
972,0.0
997,214249.28690806067
2,2, 1, 2, 0,24, 0.00,60.00,Tuesday
8,-3.0766921149082706
10,170651511.22153355
922,223059701.04777173
2,2, 1, 2, 0,24, 0.00,60.00,Tuesday
11,170651511.22153355
47,10319839.487914708
139,37366621.5894875
279,48651744.01400432
306,0.11460712717147152
330,0.11460712717147152
732,54883133.01365401
826,0.0
843,19195082.40692848
923,223059701.04777173
947,223059701.04777173
972,0.0
997,235090.7095445536
3,2, 1, 2, 0,Tuesday
488,21.568906715519899,21.059120787895233,14,60,22.290979723872498, 1,60
527,20.99886061093689,20.607223339235689,24,60,21.665010448636946, 1,60
566,19.7834113299314,18.964324562789057, 5,60,20.50439171164443,19,60
2,3, 1, 3, 0, 1, 0.00,60.00,Wednesday
8,-3.8400849580777196
10,108157185.00822769
922,287037555.30869677
2,3, 1, 3, 0, 1, 0.00,60.00,Wednesday
11,108157185.00822769
47,7997754.322045701
139,29142546.20624856
279,0.0
306,0.03161575921971629
330,0.03161575921971629
732,54883133.01365401
826,0.0
843,15805220.945559774
923,287037555.30869677
947,287037555.30869677
972,0.0
997,328530.52071966408
2,3, 1, 3, 0, 2, 0.00,60.00,Wednesday
8,-3.839424890680984
10,105535196.79606046
922,219271344.9266013
2,3, 1, 3, 0, 2, 0.00,60.00,Wednesday
11,105535196.79606046
47,7997754.322045701
139,26612061.47294426
279,0.0
306,0.015807879609858145
330,0.015807879609858145
732,54883133.01365401
826,0.0
843,15805220.945559774
923,219271344.9266013
947,219271344.9266013
972,0.0
997,237027.04185672286
2,3, 1, 3, 0, 3, 0.00,60.00,Wednesday
8,-4.1712791770681749
10,104263808.47706823
922,218564348.86479754
2,3, 1, 3, 0, 3, 0.00,60.00,Wednesday
11,104263808.47706823
47,7997754.322045701
139,25346819.10629212
279,0.0
306,0.003951969902464536
330,0.003951969902464536
732,54883133.01365401
826,0.0
843,15805220.945559774
923,218564348.86479754
947,218564348.86479754
972,0.0
997,230881.0895166313
2,3, 1, 3, 0, 4, 0.00,60.00,Wednesday
8,-4.310274787688259
10,103735534.8154151
922,292146340.1555926
2,3, 1, 3, 0, 4, 0.00,60.00,Wednesday
11,103735534.8154151
47,7997754.322045701
139,24714197.922966049
279,0.0
306,0.003951969902464536
330,0.003951969902464536
732,54883133.01365401
826,0.0
843,15805220.945559774
923,292146340.1555926
947,292146340.1555926
972,0.0
997,335228.61118955528
2,3, 1, 3, 0, 5, 0.00,60.00,Wednesday
8,-5.011897641093955
10,106871634.31574461
922,312585004.8942872
2,3, 1, 3, 0, 5, 0.00,60.00,Wednesday
11,106871634.31574461
47,11093867.83093701
139,24714197.922966049
279,0.0
306,0.015807879609858145
330,0.015807879609858145
732,54883133.01365401
826,0.0
843,15805220.945559774
923,312585004.8942872
947,312585004.8942872
972,0.0
997,375214.6026277889
2,3, 1, 3, 0, 6, 0.00,60.00,Wednesday
8,-5.348283325588144
10,130895525.68493916
922,295946731.4654953
2,3, 1, 3, 0, 6, 0.00,60.00,Wednesday
11,130895525.68493916
47,16512066.642499425
139,27877303.839596414
279,15466789.90058496
306,0.10670318736654248
330,0.10670318736654248
732,54883133.01365401
826,0.0
843,15805220.945559774
923,295946731.4654953
947,295946731.4654953
972,0.0
997,351011.3430445941
2,3, 1, 3, 0, 7, 0.00,60.00,Wednesday
8,-5.654568022820762
10,218174825.50209109
922,306587335.6817251
2,3, 1, 3, 0, 7, 0.00,60.00,Wednesday
11,218174825.50209109
47,17286094.985521728
139,36524358.06243767
279,89919296.40418253
306,0.3714851708316664
330,0.3714851708316664
732,54883133.01365401
826,0.0
843,19195082.40692848
923,306587335.6817251
947,306587335.6817251
972,0.0
997,366860.6293666665
2,3, 1, 3, 0, 8, 0.00,60.00,Wednesday
8,-5.4788702207489179
10,221588141.8980253
922,283281157.6811242
2,3, 1, 3, 0, 8, 0.00,60.00,Wednesday
11,221588141.8980253
47,16512066.642499425
139,45912497.566536057
279,84754534.06161726
306,0.3951969902464536
330,0.3951969902464536
732,54883133.01365401
826,0.0
843,19195082.40692848
923,283281157.6811242
947,283281157.6811242
972,0.0
997,330828.2067901344
2,3, 1, 3, 0, 9, 0.00,60.00,Wednesday
8,-5.78833505928885
10,190677069.52401189
922,234423586.5239843
2,3, 1, 3, 0, 9, 0.00,60.00,Wednesday
11,190677069.52401189
47,13706614.392491255
139,45412157.43509294
279,76418569.38341709
306,0.3793891106365955
330,0.3793891106365955
732,54883133.01365401
826,0.0
843,0.0
923,234423586.5239843
947,234423586.5239843
972,0.0
997,256595.29935661943
2,3, 1, 3, 0,10, 0.00,60.00,Wednesday
8,-6.360779300234708
10,164506280.99848549
922,314657475.93589696
2,3, 1, 3, 0,10, 0.00,60.00,Wednesday
11,164506280.99848549
47,12158557.56964455
139,44429840.36337802
279,52662773.606451299
306,0.33196547180702098
330,0.33196547180702098
732,54883133.01365401
826,0.0
843,0.0
923,314657475.93589696
947,314657475.93589696
972,0.0
997,371976.44535761358
2,3, 1, 3, 0,11, 0.00,60.00,Wednesday
8,-6.209417884049362
10,217183704.77544815
922,287678821.21964409
2,3, 1, 3, 0,11, 0.00,60.00,Wednesday
11,217183704.77544815
47,12158557.56964455
139,45695082.73003016
279,104109030.27502077
306,0.30034971258730477
330,0.30034971258730477
732,54883133.01365401
826,0.0
843,0.0
923,287678821.21964409
947,287678821.21964409
972,0.0
997,337901.1870986646
2,3, 1, 3, 0,12, 0.00,60.00,Wednesday
8,-6.0824279633693039
10,165225893.23637516
922,253863739.54109533
2,3, 1, 3, 0,12, 0.00,60.00,Wednesday
11,165225893.23637516
47,12158557.56964455
139,47011672.14330676
279,50887196.55733744
306,0.24107016405033669
330,0.24107016405033669
732,54883133.01365401
826,0.0
843,0.0
923,253863739.54109533
947,253863739.54109533
972,0.0
997,285333.95243239
2,3, 1, 3, 0,13, 0.00,60.00,Wednesday
8,-6.550193446183367
10,146768986.72149355
922,268357025.2578006
2,3, 1, 3, 0,13, 0.00,60.00,Wednesday
11,146768986.72149355
47,11795676.102762018
139,46256397.69514882
279,33529969.735174046
306,0.20945440483062043
330,0.20945440483062043
732,54883133.01365401
826,0.0
843,0.0
923,268357025.2578006
947,268357025.2578006
972,0.0
997,303810.17475466339
2,3, 1, 3, 0,14, 0.00,60.00,Wednesday
8,-6.889542842120662
10,127790820.53941792
922,278052774.0705872
2,3, 1, 3, 0,14, 0.00,60.00,Wednesday
11,127790820.53941792
47,12158557.56964455
139,43797219.18005194
279,16632477.100076568
306,0.1857425854158332
330,0.1857425854158332
732,54883133.01365399
826,0.0
843,0.0
923,278052774.0705872
947,278052774.0705872
972,0.0
997,319433.6759908623
2,3, 1, 3, 0,15, 0.00,60.00,Wednesday
8,-7.3508378156906419
10,159982049.7926992
922,259659235.88783948
2,3, 1, 3, 0,15, 0.00,60.00,Wednesday
11,159982049.7926992
47,12158557.56964455
139,43164597.996725868
279,49483334.42435455
306,0.16203076600104597
330,0.16203076600104597
732,54883133.01365401
826,0.0
843,0.0
923,259659235.88783948
947,259659235.88783948
972,0.0
997,292426.78832021329
2,3, 1, 3, 0,16, 0.00,60.00,Wednesday
8,-7.469274250048447
10,165577609.1982979
922,268723325.3764873
2,3, 1, 3, 0,16, 0.00,60.00,Wednesday
11,165577609.1982979
47,14480642.872315659
139,46017853.240824047
279,49892717.20512039
306,0.1857425854158332
330,0.1857425854158332
732,54883133.01365401
826,0.0
843,0.0
923,268723325.3764873
947,268723325.3764873
972,0.0
997,303262.8663838074
2,3, 1, 3, 0,17, 0.00,60.00,Wednesday
8,-7.904415557688695
10,180220458.61279265
922,276864318.67214956
2,3, 1, 3, 0,17, 0.00,60.00,Wednesday
11,180220458.61279265
47,19898841.547075973
139,54665135.02756995
279,50457818.056870538
306,0.21735834463554949
330,0.21735834463554949
732,54883133.01365399
826,0.0
843,0.0
923,276864318.67214956
947,276864318.67214956
972,0.0
997,315530.9676222086
2,3, 1, 3, 0,18, 0.00,60.00,Wednesday
8,-8.367190283489729
10,215557251.6415801
922,276289737.26521769
2,3, 1, 3, 0,18, 0.00,60.00,Wednesday
11,215557251.6415801
47,21930265.317259738
139,67438109.10339627
279,51794983.75305771
306,0.2884938028799111
330,0.2884938028799111
732,54883133.01365401
826,0.0
843,19195082.40692848
923,276289737.26521769
947,276289737.26521769
972,0.0
997,315678.0472839675
2,3, 1, 3, 0,19, 0.00,60.00,Wednesday
8,-8.255558329956174
10,218491553.07356299
922,272427243.4928095
2,3, 1, 3, 0,19, 0.00,60.00,Wednesday
11,218491553.07356299
47,27348464.128822157
139,63936711.28918258
279,52817454.2182371
306,0.33986941161195008
330,0.33986941161195008
732,54883133.01365401
826,0.0
843,19195082.40692848
923,272427243.4928095
947,272427243.4928095
972,0.0
997,310708.01673868726
2,3, 1, 3, 0,20, 0.00,60.00,Wednesday
8,-8.816054925650735
10,270095677.10711976
922,232192099.80638165
2,3, 1, 3, 0,20, 0.00,60.00,Wednesday
11,270095677.10711976
47,31218606.117537869
139,59508363.00590007
279,105038578.72843291
306,0.3240615320020919
330,0.3240615320020919
732,54883133.01365401
826,0.0
843,19195082.40692848
923,232192099.80638165
947,232192099.80638165
972,0.0
997,251913.83466642007
2,3, 1, 3, 0,21, 0.00,60.00,Wednesday
8,-8.816054925650735
10,216016573.4890245
922,238930685.65698345
2,3, 1, 3, 0,21, 0.00,60.00,Wednesday
11,216016573.4890245
47,31218606.117537869
139,58519533.57642333
279,51943234.05971647
306,0.2963977426848402
330,0.2963977426848402
732,54883133.01365401
826,0.0
843,19195082.40692848
923,238930685.65698345
947,238930685.65698345
972,0.0
997,256984.31476433183
2,3, 1, 3, 0,22, 0.00,60.00,Wednesday
8,-10.14379348977496
10,203162521.23347298
922,241352661.2419873
2,3, 1, 3, 0,22, 0.00,60.00,Wednesday
11,203162521.23347298
47,23478322.140106445
139,54447393.53929148
279,50898781.77446469
306,0.24107016405033669
330,0.24107016405033669
732,54883133.01365401
826,0.0
843,19195082.40692848
923,241352661.2419873
947,241352661.2419873
972,0.0
997,259808.35902788715
2,3, 1, 3, 0,23, 0.00,60.00,Wednesday
8,-9.490273946420136
10,186020213.31841735
922,267856838.58606399
2,3, 1, 3, 0,23, 0.00,60.00,Wednesday
11,186020213.31841735
47,15738038.16267502
139,45590696.97272646
279,50315700.73585676