Program Version,EnergyPlus, Version 9.1.0-08d2e308bb, YMD=2019.12.31 12:50
1,5,Environment Title[],Latitude[deg],Longitude[deg],Time Zone[],Elevation[m]
2,8,Day of Simulation[],Month[],Day of Month[],DST Indicator[1=yes 0=no],Hour[],StartMinute[],EndMinute[],DayType
3,5,Cumulative Day of Simulation[],Month[],Day of Month[],DST Indicator[1=yes 0=no],DayType  ! When Daily Report Variables Requested
4,2,Cumulative Days of Simulation[],Month[]  ! When Monthly Report Variables Requested
5,1,Cumulative Days of Simulation[] ! When Run Period Report Variables Requested
6,1,Calendar Year of Simulation[] ! When Annual Report Variables Requested
7,9,Environment,Site Outdoor Air Drybulb Temperature [C] !Monthly [Value,Min,Day,Hour,Minute,Max,Day,Hour,Minute]
8,1,Environment,Site Outdoor Air Wetbulb Temperature [C] !TimeStep
488,1,BUILDING STORY 1 THERMALZONE,Zone Air Temperature [C] !Hourly
489,7,BUILDING STORY 1 THERMALZONE,Zone Air Relative Humidity [%] !Daily [Value,Min,Hour,Minute,Max,Hour,Minute]
528,1,BUILDING STORY 2 THERMALZONE,Zone Air Temperature [C] !Hourly
529,7,BUILDING STORY 2 THERMALZONE,Zone Air Relative Humidity [%] !Daily [Value,Min,Hour,Minute,Max,Hour,Minute]
568,1,BUILDING STORY 3 THERMALZONE,Zone Air Temperature [C] !Hourly
569,7,BUILDING STORY 3 THERMALZONE,Zone Air Relative Humidity [%] !Daily [Value,Min,Hour,Minute,Max,Hour,Minute]
10,1,Electricity:Facility [J] !TimeStep
925,1,Gas:Facility [J] !TimeStep
End of Data Dictionary
1,BUFFALO NIAGARA INTL AP ANN CLG .4% CONDNS DB=>MWB,  42.93, -78.73,  -5.00, 215.00
2,1, 7,21, 0, 1, 0.00,60.00,SummerDesignDay
8,19.36840579326866
10,173740047.9958762
925,0.0
2,1, 7,21, 0, 1, 0.00,60.00,SummerDesignDay
488,24.400202091064697
528,24.399940475444724
568,24.397576389518055
2,1, 7,21, 0, 2, 0.00,60.00,SummerDesignDay
8,19.25226217922265
10,167546675.77558775
925,0.0
2,1, 7,21, 0, 2, 0.00,60.00,SummerDesignDay
488,24.40015166834629
528,24.39999639871239
568,24.397820534149536
2,1, 7,21, 0, 3, 0.00,60.00,SummerDesignDay
8,19.164819553782637
10,163618888.54230375
925,0.0
2,1, 7,21, 0, 3, 0.00,60.00,SummerDesignDay
488,24.40008341846632
528,24.40000905431951
568,24.3979774482083
2,1, 7,21, 0, 4, 0.00,60.00,SummerDesignDay
8,19.0770792448193
10,160641470.143013
925,0.0
2,1, 7,21, 0, 4, 0.00,60.00,SummerDesignDay
488,24.40001482507007
528,24.40000699298352
568,24.398090601543477
2,1, 7,21, 0, 5, 0.00,60.00,SummerDesignDay
8,19.018427637799467
10,162476773.66521815
925,0.0
2,1, 7,21, 0, 5, 0.00,60.00,SummerDesignDay
488,24.399943589898997
528,24.399986251803413
568,24.398147279761735
2,1, 7,21, 0, 6, 0.00,60.00,SummerDesignDay
8,19.0770792448193
10,162484334.64913673
925,0.0
2,1, 7,21, 0, 6, 0.00,60.00,SummerDesignDay
488,24.39962912332834
528,24.399745946033247
568,24.39779557899869
2,1, 7,21, 0, 7, 0.00,60.00,SummerDesignDay
8,19.281346189070228
10,235242314.6880229
925,0.0
2,1, 7,21, 0, 7, 0.00,60.00,SummerDesignDay
488,24.398726150103184
528,24.39888602624986
568,24.396819418490478
2,1, 7,21, 0, 8, 0.00,60.00,SummerDesignDay
8,19.770887505670989
10,310254365.3914415
925,0.0
2,1, 7,21, 0, 8, 0.00,60.00,SummerDesignDay
488,24.39739095121395
528,24.39738993527484
568,24.395193666413154
2,1, 7,21, 0, 9, 0.00,60.00,SummerDesignDay
8,20.30732185289352
10,267331915.0992569
925,0.0
2,1, 7,21, 0, 9, 0.00,60.00,SummerDesignDay
488,24.397105383296613
528,24.396466741289435
568,24.393759655837689
2,1, 7,21, 0,10, 0.00,60.00,SummerDesignDay
8,20.778037156782458
10,275847246.2243016
925,0.0
2,1, 7,21, 0,10, 0.00,60.00,SummerDesignDay
488,24.397377836032157
528,24.396194943360859
568,24.392876065970964
2,1, 7,21, 0,11, 0.00,60.00,SummerDesignDay
8,21.186337137460165
10,283131467.02021887
925,0.0
2,1, 7,21, 0,11, 0.00,60.00,SummerDesignDay
488,24.398039742749494
528,24.396524976510503
568,24.392619295723479
2,1, 7,21, 0,12, 0.00,60.00,SummerDesignDay
8,21.45495938709981
10,284770805.7828915
925,0.0
2,1, 7,21, 0,12, 0.00,60.00,SummerDesignDay
488,24.398826251217174
528,24.397188059686255
568,24.392833534331304
2,1, 7,21, 0,13, 0.00,60.00,SummerDesignDay
8,21.667839996742449
10,286340272.0208729
925,0.0
2,1, 7,21, 0,13, 0.00,60.00,SummerDesignDay
488,24.399280349344929
528,24.397661631729837
568,24.393032413240556
2,1, 7,21, 0,14, 0.00,60.00,SummerDesignDay
8,21.799990419629109
10,239458300.43111754
925,0.0
2,1, 7,21, 0,14, 0.00,60.00,SummerDesignDay
488,24.39944732188022
528,24.397871066525476
568,24.39308626651677
2,1, 7,21, 0,15, 0.00,60.00,SummerDesignDay
8,21.799990419629109
10,286760439.1031827
925,0.0
2,1, 7,21, 0,15, 0.00,60.00,SummerDesignDay
488,24.39950067836529
528,24.397954740440029
568,24.393112727006849
2,1, 7,21, 0,16, 0.00,60.00,SummerDesignDay
8,21.641326796728476
10,290247193.63083758
925,0.0
2,1, 7,21, 0,16, 0.00,60.00,SummerDesignDay
488,24.39938290711232
528,24.397875289383099
568,24.393103364084078
2,1, 7,21, 0,17, 0.00,60.00,SummerDesignDay
8,21.42822317147698
10,256872338.83383648
925,0.0
2,1, 7,21, 0,17, 0.00,60.00,SummerDesignDay
488,24.398908581488109
528,24.397467013310309
568,24.392914629987087
2,1, 7,21, 0,18, 0.00,60.00,SummerDesignDay
8,21.15931786227956
10,323314905.60784748
925,0.0
2,1, 7,21, 0,18, 0.00,60.00,SummerDesignDay
488,24.3983188060524
528,24.396977295034128
568,24.392778229248763
2,1, 7,21, 0,19, 0.00,60.00,SummerDesignDay
8,20.750583661392644
10,327471256.40942987
925,0.0
2,1, 7,21, 0,19, 0.00,60.00,SummerDesignDay
488,24.398474322761719
528,24.397170076478355
568,24.393278083028269
2,1, 7,21, 0,20, 0.00,60.00,SummerDesignDay
8,20.446661088459409
10,342565795.6658523
925,0.0
2,1, 7,21, 0,20, 0.00,60.00,SummerDesignDay
488,24.399562516692219
528,24.398336345566276
568,24.394628849409263
2,1, 7,21, 0,21, 0.00,60.00,SummerDesignDay
8,20.19530361990708
10,305131914.3190773
925,0.0
2,1, 7,21, 0,21, 0.00,60.00,SummerDesignDay
488,24.399963786167434
528,24.398984775471676
568,24.395570576031898
2,1, 7,21, 0,22, 0.00,60.00,SummerDesignDay
8,19.941485234887624
10,238331459.22316284
925,0.0
2,1, 7,21, 0,22, 0.00,60.00,SummerDesignDay
488,24.400013350431718
528,24.399281730912386
568,24.39621128079292
2,1, 7,21, 0,23, 0.00,60.00,SummerDesignDay
8,19.7423381019073
10,262220913.08561266
925,0.0
2,1, 7,21, 0,23, 0.00,60.00,SummerDesignDay
488,24.400117841866778
528,24.399564844670527
568,24.396759018014405
2,1, 7,21, 0,24, 0.00,60.00,SummerDesignDay
8,19.54165603023991
10,240370758.40851069
925,0.0
2,1, 7,21, 0,24, 0.00,60.00,SummerDesignDay
488,24.400184134009025
528,24.399789864316604
568,24.3972192466999
3,1, 7,21, 0,SummerDesignDay
489,55.12348438561069,50.80868244425656,19,60,61.530820107582417, 6,60
529,52.67312055614287,48.71592204605184,19,60,58.7112487555181, 6,60
569,52.0961451681728,49.79708295438458,18,60,55.446816564325299, 6,60
4,1, 7
7,25.312875000000003,21.0,21, 5,60,30.3,21,14,60
1,BUFFALO NIAGARA INTL AP ANN CLG .4% CONDNS WB=>MDB,  42.93, -78.73,  -5.00, 215.00
2,1, 7,21, 0, 1, 0.00,60.00,SummerDesignDay
8,19.615996954992807
10,166971688.6794437
925,0.0
2,1, 7,21, 0, 1, 0.00,60.00,SummerDesignDay
488,24.39995787851837
528,24.399766837355228
568,24.397105847510838
2,1, 7,21, 0, 2, 0.00,60.00,SummerDesignDay
8,19.243988037109376
10,159559937.33713369
925,0.0
2,1, 7,21, 0, 2, 0.00,60.00,SummerDesignDay
488,24.399896462189589
528,24.39984877287899
568,24.397596300654059
2,1, 7,21, 0, 3, 0.00,60.00,SummerDesignDay
8,18.96499632356402
10,154565872.8596786
925,0.0
2,1, 7,21, 0, 3, 0.00,60.00,SummerDesignDay
488,24.39986719618214
528,24.399892115563739
568,24.39795016944767
2,1, 7,21, 0, 4, 0.00,60.00,SummerDesignDay
8,18.685989379882814
10,150722205.3308862
925,0.0
2,1, 7,21, 0, 4, 0.00,60.00,SummerDesignDay
488,24.399861011562714
528,24.399916848053878
568,24.39821464950588
2,1, 7,21, 0, 5, 0.00,60.00,SummerDesignDay
8,18.49999810986028
10,151919082.15407173
925,0.0
2,1, 7,21, 0, 5, 0.00,60.00,SummerDesignDay
488,24.399861885734688
528,24.39992425443916
568,24.398392973443767
2,1, 7,21, 0, 6, 0.00,60.00,SummerDesignDay
8,18.685989379882814
10,152681712.91456444
925,0.0
2,1, 7,21, 0, 6, 0.00,60.00,SummerDesignDay
488,24.399557871494286
528,24.399740711468245
568,24.39816875547546
2,1, 7,21, 0, 7, 0.00,60.00,SummerDesignDay
8,19.336990356445314
10,227033428.27286343
925,0.0
2,1, 7,21, 0, 7, 0.00,60.00,SummerDesignDay
488,24.39861954165381
528,24.398931152231478
568,24.39730751813847
2,1, 7,21, 0, 8, 0.00,60.00,SummerDesignDay
8,20.917992548817627
10,305566308.9401524
925,0.0
2,1, 7,21, 0, 8, 0.00,60.00,SummerDesignDay
488,24.397439768702399
528,24.397575752547526
568,24.39578618178303
2,1, 7,21, 0, 9, 0.00,60.00,SummerDesignDay
8,22.420023807696297
10,265253241.66890756
925,0.0
2,1, 7,21, 0, 9, 0.00,60.00,SummerDesignDay
488,24.397382017893944
528,24.396640341846309
568,24.39388749702178
2,1, 7,21, 0,10, 0.00,60.00,SummerDesignDay
8,22.854695006230427
10,275291469.70204469
925,0.0
2,1, 7,21, 0,10, 0.00,60.00,SummerDesignDay
488,24.39726729877012
528,24.395712420836323
568,24.391572064086057
2,1, 7,21, 0,11, 0.00,60.00,SummerDesignDay
8,23.232104587122938
10,283757699.749973
925,0.0
2,1, 7,21, 0,11, 0.00,60.00,SummerDesignDay
488,24.397637100625855
528,24.39548090776309
568,24.38994896668939
2,1, 7,21, 0,12, 0.00,60.00,SummerDesignDay
8,23.480593542408348
10,285333267.8866614
925,0.0
2,1, 7,21, 0,12, 0.00,60.00,SummerDesignDay
488,24.398459188212116
528,24.395984991087916
568,24.38939365842093
2,1, 7,21, 0,13, 0.00,60.00,SummerDesignDay
8,23.677626430315248
10,286806933.39983448
925,0.0
2,1, 7,21, 0,13, 0.00,60.00,SummerDesignDay
488,24.398940112318465
528,24.396400494780694
568,24.389148527548679
2,1, 7,21, 0,14, 0.00,60.00,SummerDesignDay
8,23.799986320868798
10,239924049.75994749
925,0.0
2,1, 7,21, 0,14, 0.00,60.00,SummerDesignDay
488,24.399074523559177
528,24.396538081381228
568,24.388916221511356
2,1, 7,21, 0,15, 0.00,60.00,SummerDesignDay
8,23.799986320868798
10,287092560.5475081
925,0.0
2,1, 7,21, 0,15, 0.00,60.00,SummerDesignDay
488,24.399155750417945
528,24.39662303898003
568,24.388871783544905
2,1, 7,21, 0,16, 0.00,60.00,SummerDesignDay
8,23.653081835774505
10,290521360.0294632
925,0.0
2,1, 7,21, 0,16, 0.00,60.00,SummerDesignDay
488,24.39905023283656
528,24.39656650732377
568,24.388962343896116
2,1, 7,21, 0,17, 0.00,60.00,SummerDesignDay
8,23.4558543827806
10,257548489.50949697
925,0.0
2,1, 7,21, 0,17, 0.00,60.00,SummerDesignDay
488,24.39833546662796
528,24.395984634027014
568,24.38880546311328
2,1, 7,21, 0,18, 0.00,60.00,SummerDesignDay
8,23.207119318496696
10,324332071.4697251
925,0.0
2,1, 7,21, 0,18, 0.00,60.00,SummerDesignDay
488,24.397462689454306
528,24.395301653392026
568,24.388759897381154
2,1, 7,21, 0,19, 0.00,60.00,SummerDesignDay
8,22.82933132300861
10,327802478.72873887
925,0.0
2,1, 7,21, 0,19, 0.00,60.00,SummerDesignDay
488,24.398012906085954
528,24.39586413335506
568,24.389841763826565
2,1, 7,21, 0,20, 0.00,60.00,SummerDesignDay
8,22.548645905899027
10,341741722.748572
925,0.0
2,1, 7,21, 0,20, 0.00,60.00,SummerDesignDay
488,24.399882398451426
528,24.397889817178308
568,24.39224226042833
2,1, 7,21, 0,21, 0.00,60.00,SummerDesignDay
8,22.312987690310977
10,304373666.8631034
925,0.0
2,1, 7,21, 0,21, 0.00,60.00,SummerDesignDay
488,24.400496952829955
528,24.39892976190343
568,24.393863028732029
2,1, 7,21, 0,22, 0.00,60.00,SummerDesignDay
8,21.475995587251039
10,237132523.7160486
925,0.0
2,1, 7,21, 0,22, 0.00,60.00,SummerDesignDay
488,24.400218671834098
528,24.399154204062446
568,24.394800515826775
2,1, 7,21, 0,23, 0.00,60.00,SummerDesignDay
8,20.824995071347869
10,259300478.11826674
925,0.0
2,1, 7,21, 0,23, 0.00,60.00,SummerDesignDay
488,24.400076956659718
528,24.399389195546836
568,24.39564656908609
2,1, 7,21, 0,24, 0.00,60.00,SummerDesignDay
8,20.173995840857065
10,235455819.46373338
925,0.0
2,1, 7,21, 0,24, 0.00,60.00,SummerDesignDay
488,24.399997149542306
528,24.399601501829144
568,24.396430572334777
3,1, 7,21, 0,SummerDesignDay
489,61.83419327221933,55.909691057784609,19,60,68.26560637485594, 6,60
529,58.86071373907274,53.86452731071169,19,60,64.5473252788931, 6,60
569,58.80803209533133,56.70678294955193,18,60,60.447801117266809,24,60
4,1, 7
7,22.812875000000003,18.5,21, 5,60,27.8,21,14,60
1,BUFFALO NIAGARA INTL AP ANN HTG 99.6% CONDNS DB,  42.93, -78.73,  -5.00, 215.00
2,1, 1,21, 0, 1, 0.00,60.00,WinterDesignDay
8,-16.3
10,125830348.17668994
925,447655552.65937188
2,1, 1,21, 0, 1, 0.00,60.00,WinterDesignDay
488,21.701569783044048
528,21.701563293857306
568,21.702460290064594
2,1, 1,21, 0, 2, 0.00,60.00,WinterDesignDay
8,-16.3
10,123377865.25391016
925,451202811.7325445
2,1, 1,21, 0, 2, 0.00,60.00,WinterDesignDay
488,21.701723680147415
528,21.701725661582647
568,21.702185584885745
2,1, 1,21, 0, 3, 0.00,60.00,WinterDesignDay
8,-16.3
10,122152594.4307561
925,453499196.3597338
2,1, 1,21, 0, 3, 0.00,60.00,WinterDesignDay
488,21.701820009672418
528,21.701830666246989
568,21.702101285069895
2,1, 1,21, 0, 4, 0.00,60.00,WinterDesignDay
8,-16.3
10,121540959.82431795
925,455094747.1177287
2,1, 1,21, 0, 4, 0.00,60.00,WinterDesignDay
488,21.7018861412171
528,21.70190343646364
568,21.702084719559548
2,1, 1,21, 0, 5, 0.00,60.00,WinterDesignDay
8,-16.3
10,124550877.33642262
925,454290789.901623
2,1, 1,21, 0, 5, 0.00,60.00,WinterDesignDay
488,21.70188655798082
528,21.701913415596708
568,21.702072183776136
2,1, 1,21, 0, 6, 0.00,60.00,WinterDesignDay
8,-16.3
10,132886168.3542849
925,449004910.24319019
2,1, 1,21, 0, 6, 0.00,60.00,WinterDesignDay
488,21.701762369795128
528,21.70181224391942
568,21.70202169069172
2,1, 1,21, 0, 7, 0.00,60.00,WinterDesignDay
8,-16.3
10,247388281.6553703
925,442430419.2321659
2,1, 1,21, 0, 7, 0.00,60.00,WinterDesignDay
488,21.701585332508459
528,21.70166190537554
568,21.70194731536884
2,1, 1,21, 0, 8, 0.00,60.00,WinterDesignDay
8,-16.3
10,201899063.19778229
925,439818113.64923456
2,1, 1,21, 0, 8, 0.00,60.00,WinterDesignDay
488,21.701499770887709
528,21.701568112264988
568,21.70189243001348
2,1, 1,21, 0, 9, 0.00,60.00,WinterDesignDay
8,-16.3
10,230381362.27845539
925,451501189.3027315
2,1, 1,21, 0, 9, 0.00,60.00,WinterDesignDay
488,21.70178000897707
528,21.701744054912365
568,21.701957184397018
2,1, 1,21, 0,10, 0.00,60.00,WinterDesignDay
8,-16.3
10,176530297.28316654
925,454797249.1872996
2,1, 1,21, 0,10, 0.00,60.00,WinterDesignDay
488,21.701911971208756
528,21.701862729484558
568,21.702009241491284
2,1, 1,21, 0,11, 0.00,60.00,WinterDesignDay
8,-16.3
10,224531712.62775923
925,454006379.54568108
2,1, 1,21, 0,11, 0.00,60.00,WinterDesignDay
488,21.701874142127556
528,21.701869905255675
568,21.70202107344572
2,1, 1,21, 0,12, 0.00,60.00,WinterDesignDay
8,-16.3
10,179592684.5087204
925,453717587.8985554
2,1, 1,21, 0,12, 0.00,60.00,WinterDesignDay
488,21.701816876317776
528,21.701849405076975
568,21.70201918339197
2,1, 1,21, 0,13, 0.00,60.00,WinterDesignDay
8,-16.3
10,130798831.27245507
925,454398506.9997106
2,1, 1,21, 0,13, 0.00,60.00,WinterDesignDay
488,21.70179270352194
528,21.701842738516296
568,21.702020291487267
2,1, 1,21, 0,14, 0.00,60.00,WinterDesignDay
8,-16.3
10,169180165.70392145
925,456119363.0114444
2,1, 1,21, 0,14, 0.00,60.00,WinterDesignDay
488,21.701809126411495
528,21.701864804007447
568,21.70203212913579
2,1, 1,21, 0,15, 0.00,60.00,WinterDesignDay
8,-16.3
10,172166276.39316008
925,456847742.2502115
2,1, 1,21, 0,15, 0.00,60.00,WinterDesignDay
488,21.701811575012603
528,21.701879109741208
568,21.702041339041157
2,1, 1,21, 0,16, 0.00,60.00,WinterDesignDay
8,-16.3
10,176670061.22542388
925,454222468.1562387
2,1, 1,21, 0,16, 0.00,60.00,WinterDesignDay
488,21.701729124822
528,21.70182136156389
568,21.702020868591786
2,1, 1,21, 0,17, 0.00,60.00,WinterDesignDay
8,-16.3
10,189859741.79359044
925,443548294.0121172
2,1, 1,21, 0,17, 0.00,60.00,WinterDesignDay
488,21.701438057913003
528,21.701593399618856
568,21.701923290396807
2,1, 1,21, 0,18, 0.00,60.00,WinterDesignDay
8,-16.3
10,226682747.06417416
925,424816820.8765599
2,1, 1,21, 0,18, 0.00,60.00,WinterDesignDay
488,21.701011244820906
528,21.70122455316636
568,21.704093422894727
2,1, 1,21, 0,19, 0.00,60.00,WinterDesignDay
8,-16.3
10,232939403.29052548
925,412973351.5738582
2,1, 1,21, 0,19, 0.00,60.00,WinterDesignDay
488,21.701513172072919
528,21.70096127550509
568,21.704698207282246
2,1, 1,21, 0,20, 0.00,60.00,WinterDesignDay
8,-16.3
10,282979052.5488952
925,412883305.50123909
2,1, 1,21, 0,20, 0.00,60.00,WinterDesignDay
488,21.701642701442994
528,21.70087959184149
568,21.70491970469458
2,1, 1,21, 0,21, 0.00,60.00,WinterDesignDay
8,-16.3
10,229071462.86455585
925,413273531.708579
2,1, 1,21, 0,21, 0.00,60.00,WinterDesignDay
488,21.701719124832
528,21.700868976558867
568,21.705015464286718
2,1, 1,21, 0,22, 0.00,60.00,WinterDesignDay
8,-16.3
10,218054265.28382189
925,415637350.19680866
2,1, 1,21, 0,22, 0.00,60.00,WinterDesignDay
488,21.7010092308771
528,21.7009046578445
568,21.705113968939746
2,1, 1,21, 0,23, 0.00,60.00,WinterDesignDay
8,-16.3
10,201359188.8587668
925,427421465.2251777
2,1, 1,21, 0,23, 0.00,60.00,WinterDesignDay
488,21.701066348585408
528,21.701074425968995
568,21.705401089658485
2,1, 1,21, 0,24, 0.00,60.00,WinterDesignDay
8,-16.3
10,139410007.59543626
925,438068146.387758
2,1, 1,21, 0,24, 0.00,60.00,WinterDesignDay
488,21.701295174847794
528,21.701308214267298
568,21.70324123861442
3,1, 1,21, 0,WinterDesignDay
489,7.935219791109805,6.9440147845462809,17,60,8.7909715575029, 7,60
529,7.245145958295172,6.615801589593646,17,60,7.801286298104808, 7,60
569,6.118771907134587,5.903003687700814,17,60,6.303483731743611, 7,60
4,1, 1
7,-16.300000000000009,-16.3,21, 1,60,-16.3,21, 1,60
End of Data
 Number of Records Written=         444
