Program Version,EnergyPlus, Version 9.1.0-08d2e308bb, YMD=2019.12.31 12:53
1,5,Environment Title[],Latitude[deg],Longitude[deg],Time Zone[],Elevation[m]
2,8,Day of Simulation[],Month[],Day of Month[],DST Indicator[1=yes 0=no],Hour[],StartMinute[],EndMinute[],DayType
3,5,Cumulative Day of Simulation[],Month[],Day of Month[],DST Indicator[1=yes 0=no],DayType  ! When Daily Report Variables Requested
4,2,Cumulative Days of Simulation[],Month[]  ! When Monthly Report Variables Requested
5,1,Cumulative Days of Simulation[] ! When Run Period Report Variables Requested
6,1,Calendar Year of Simulation[] ! When Annual Report Variables Requested
7,9,Environment,Site Outdoor Air Drybulb Temperature [C] !Monthly [Value,Min,Day,Hour,Minute,Max,Day,Hour,Minute]
8,1,Environment,Site Outdoor Air Wetbulb Temperature [C] !TimeStep
395,7,BUILDING STORY 1 THERMALZONE,Zone Air Relative Humidity [%] !Daily [Value,Min,Hour,Minute,Max,Hour,Minute]
789,1,Heating:Electricity [J] !Hourly
764,1,Heating:Gas [J] !Hourly
649,1,Cooling:Electricity [J] !Hourly
47,1,InteriorLights:Electricity [J] !Hourly
662,1,ExteriorLights:Electricity [J] !Hourly
87,1,InteriorEquipment:Electricity [J] !Hourly
561,1,Fans:Electricity [J] !Hourly
814,1,Pumps:Electricity [J] !Hourly
186,1,WaterSystems:Electricity [J] !Hourly
237,1,WaterSystems:Water [m3] !Hourly
11,1,Electricity:Facility [J] !Hourly
740,1,Gas:Facility [J] !Hourly
213,1,Water:Facility [m3] !Hourly
10,1,Electricity:Facility [J] !TimeStep
739,1,Gas:Facility [J] !TimeStep
End of Data Dictionary
1,RUN PERIOD 1,  42.93, -78.73,  -5.00, 215.00
2,1, 1, 1, 0, 1, 0.00,60.00,Monday
8,-1.1802458087361237
10,31017875.705204797
739,74064251.04392855
2,1, 1, 1, 0, 1, 0.00,60.00,Monday
11,31017875.705204797
47,2629424.337098654
87,9581204.5674506
186,0.0
213,0.010538586406572078
237,0.010538586406572078
561,12664198.010760114
649,0.0
662,6044051.733612373
740,74064251.04392855
764,74064251.04392855
789,0.0
814,98997.05628305854
2,1, 1, 1, 0, 2, 0.00,60.00,Monday
8,-1.1802458087361237
10,30193869.24426052
739,78528905.26248312
2,1, 1, 1, 0, 2, 0.00,60.00,Monday
11,30193869.24426052
47,2629424.337098654
87,8749256.263654115
186,0.0
213,0.005269293203286039
237,0.005269293203286039
561,12664198.010760114
649,0.0
662,6044051.733612373
740,78528905.26248312
764,78528905.26248312
789,0.0
814,106938.89913526227
2,1, 1, 1, 0, 3, 0.00,60.00,Monday
8,-1.87387394903547
10,29772110.388457478
739,75199466.31860665
2,1, 1, 1, 0, 3, 0.00,60.00,Monday
11,29772110.388457478
47,2629424.337098654
87,8333282.111755874
186,0.0
213,0.0013173233008215097
237,0.0013173233008215097
561,12664198.010760114
649,0.0
662,6044051.733612373
740,75199466.31860665
764,75199466.31860665
789,0.0
814,101154.19523045997
2,1, 1, 1, 0, 4, 0.00,60.00,Monday
8,-1.5103272887722317
10,29549323.702909847
739,67084439.15617446
2,1, 1, 1, 0, 4, 0.00,60.00,Monday
11,29549323.702909847
47,2629424.337098654
87,8125295.035806755
186,0.0
213,0.0013173233008215097
237,0.0013173233008215097
561,12664198.010760114
649,0.0
662,6044051.733612373
740,67084439.15617446
764,67084439.15617446
789,0.0
814,86354.58563194983
2,1, 1, 1, 0, 5, 0.00,60.00,Monday
8,-1.665952381653312
10,30578513.745236208
739,74059139.93976708
2,1, 1, 1, 0, 5, 0.00,60.00,Monday
11,30578513.745236208
47,3647334.6007658184
87,8125295.035806755
186,0.0
213,0.005269293203286039
237,0.005269293203286039
561,12664198.010760114
649,0.0
662,6044051.733612373
740,74059139.93976708
764,74059139.93976708
789,0.0
814,97634.36429114755
2,1, 1, 1, 0, 6, 0.00,60.00,Monday
8,-1.3944780310032846
10,33381913.04919094
739,63258076.59804159
2,1, 1, 1, 0, 6, 0.00,60.00,Monday
11,33381913.04919094
47,5428677.618403947
87,9165230.415552358
186,0.0
213,0.035567729122180768
237,0.035567729122180768
561,12664198.010760114
649,0.0
662,6044051.733612373
740,63258076.59804159
764,63258076.59804159
789,0.0
814,79755.27086214727
2,1, 1, 1, 0, 7, 0.00,60.00,Monday
8,-1.1805889590406258
10,74971075.6442074
739,65955082.76672299
2,1, 1, 1, 0, 7, 0.00,60.00,Monday
11,74971075.6442074
47,5683155.17307662
87,11453088.250992684
186,35676799.131762187
213,0.1238283902772219
237,0.1238283902772219
561,12664198.010760114
649,0.0
662,9410686.092893305
740,65955082.76672299
764,65955082.76672299
789,0.0
814,83148.98472249488
2,1, 1, 1, 0, 8, 0.00,60.00,Monday
8,-1.3944780310032846
10,59391454.282016787
739,66735074.973850559
2,1, 1, 1, 0, 8, 0.00,60.00,Monday
11,59391454.282016787
47,5428677.618403947
87,13855199.557511282
186,17948039.31542154
213,0.13173233008215097
237,0.13173233008215097
561,12664198.010760114
649,0.0
662,9410686.092893305
740,66735074.973850559
764,66735074.973850559
789,0.0
814,84653.68702659397
2,1, 1, 1, 0, 9, 0.00,60.00,Monday
8,-1.665952381653312
10,67443364.96531569
739,67819334.39607805
2,1, 1, 1, 0, 9, 0.00,60.00,Monday
11,67443364.96531569
47,4506328.153078933
87,14399226.254278847
186,35787086.46537297
213,0.12646303687886494
237,0.12646303687886494
561,12664198.010760114
649,0.0
662,0.0
740,67819334.39607805
764,67819334.39607805
789,0.0
814,86526.08182482976
2,1, 1, 1, 0,10, 0.00,60.00,Monday
8,-1.1802458087361237
10,48908647.62041535
739,61089928.71288012
2,1, 1, 1, 0,10, 0.00,60.00,Monday
11,48908647.62041535
47,3997372.9987571148
87,14607213.330227966
186,17564354.366431185
213,0.11065515726900681
237,0.11065515726900681
561,12664198.010760114
649,0.0
662,0.0
740,61089928.71288012
764,61089928.71288012
789,0.0
814,75508.91423896568
2,1, 1, 1, 0,11, 0.00,60.00,Monday
8,-0.9849379844004382
10,63036142.490824598
739,60046938.19876934
2,1, 1, 1, 0,11, 0.00,60.00,Monday
11,63036142.490824598
47,3997372.9987571148
87,15023187.482126205
186,31278141.71952373
213,0.10011657086243474
237,0.10011657086243474
561,12664198.010760114
649,0.0
662,0.0
740,60046938.19876934
764,60046938.19876934
789,0.0
814,73242.27965743072
2,1, 1, 1, 0,12, 0.00,60.00,Monday
8,-0.818433687998716
10,52309748.118259299
739,59619917.68525164
2,1, 1, 1, 0,12, 0.00,60.00,Monday
11,52309748.118259299
47,3997372.9987571148
87,15231174.558075328
186,20344588.357124594
213,0.08035672135011209
237,0.08035672135011209
561,12664198.010760114
649,0.0
662,0.0
740,59619917.68525164
764,59619917.68525164
789,0.0
814,72414.19354214764
2,1, 1, 1, 0,13, 0.00,60.00,Monday
8,-0.598194072481827
10,31586022.641041578
739,52135577.653942819
2,1, 1, 1, 0,13, 0.00,60.00,Monday
11,31586022.641041578
47,3878068.3387136266
87,14982862.727627993
186,0.0
213,0.06981813494354002
237,0.06981813494354002
561,12664198.010760114
649,0.0
662,0.0
740,52135577.653942819
764,52135577.653942819
789,0.0
814,60893.56393984212
2,1, 1, 1, 0,14, 0.00,60.00,Monday
8,-0.2717280594017997
10,47770492.010967377
739,51869660.996176939
2,1, 1, 1, 0,14, 0.00,60.00,Monday
11,47770492.010967377
47,3997372.9987571148
87,14399226.254278847
186,16649857.157426844
213,0.06191419513861095
237,0.06191419513861095
561,12664198.010760114
649,0.0
662,0.0
740,51869660.996176939
764,51869660.996176939
789,0.0
814,59837.58974445148
2,1, 1, 1, 0,15, 0.00,60.00,Monday
8,-0.04571975547003023
10,47419798.09484207
739,52298746.04723631
2,1, 1, 1, 0,15, 0.00,60.00,Monday
11,47419798.09484207
47,3997372.9987571148
87,14191239.178329725
186,16506622.79775417
213,0.054010255333681898
237,0.054010255333681898
561,12664198.010760114
649,0.0
662,0.0
740,52298746.04723631
764,52298746.04723631
789,0.0
814,60365.10924093656
2,1, 1, 1, 0,16, 0.00,60.00,Monday
8,-0.04535544602759805
10,48951470.82798438
739,57497640.311760898
2,1, 1, 1, 0,16, 0.00,60.00,Monday
11,48951470.82798438
47,4760805.752728079
87,14815200.406177087
186,16643032.884912534
213,0.06191419513861095
237,0.06191419513861095
561,12664198.010760114
649,0.0
662,0.0
740,57497640.311760898
764,57497640.311760898
789,0.0
814,68233.77340656125
2,1, 1, 1, 0,17, 0.00,60.00,Monday
8,-0.04535544602759805
10,53418603.284813638
739,58227359.0266282
2,1, 1, 1, 0,17, 0.00,60.00,Monday
11,53418603.284813638
47,6542148.725389735
87,17311045.317566538
186,16831287.082875778
213,0.07245278154518305
237,0.07245278154518305
561,12664198.010760114
649,0.0
662,0.0
740,58227359.0266282
764,58227359.0266282
789,0.0
814,69924.14822146973
2,1, 1, 1, 0,18, 0.00,60.00,Monday
8,-0.4337098548147795
10,67767129.27107303
739,58809390.15164701
2,1, 1, 1, 0,18, 0.00,60.00,Monday
11,67767129.27107303
47,7210020.591065604
87,21134747.2157305
186,17276564.08381028
213,0.0961646009599702
237,0.0961646009599702
561,12664198.010760114
649,0.0
662,9410686.092893305
740,58809390.15164701
764,58809390.15164701
789,0.0
814,70913.27681322856
2,1, 1, 1, 0,19, 0.00,60.00,Monday
8,-1.0213911744465183
10,69782314.83794898
739,63574498.56166603
2,1, 1, 1, 0,19, 0.00,60.00,Monday
11,69782314.83794898
47,8991363.60870373
87,21020493.74465223
186,17617049.16946052
213,0.11328980387064983
237,0.11328980387064983
561,12664198.010760114
649,0.0
662,9410686.092893305
740,63574498.56166603
764,63574498.56166603
789,0.0
814,78524.21147908994
2,1, 1, 1, 0,20, 0.00,60.00,Monday
8,-1.1809288569695527
10,87016579.24894387
739,62666141.31672373
2,1, 1, 1, 0,20, 0.00,60.00,Monday
11,87016579.24894387
47,10263751.472020042
87,19564584.213008387
186,35035826.60712498
213,0.10802051066736379
237,0.10802051066736379
561,12664198.010760114
649,0.0
662,9410686.092893305
740,62666141.31672373
764,62666141.31672373
789,0.0
814,77532.85313704635
2,1, 1, 1, 0,21, 0.00,60.00,Monday
8,-1.5108130242800387
10,68473749.07290408
739,61957359.15803236
2,1, 1, 1, 0,21, 0.00,60.00,Monday
11,68473749.07290408
47,10263751.472020042
87,18732635.909211905
186,17326214.556981379
213,0.09879924756161322
237,0.09879924756161322
561,12664198.010760114
649,0.0
662,9410686.092893305
740,61957359.15803236
764,61957359.15803236
789,0.0
814,76263.03103732338
2,1, 1, 1, 0,22, 0.00,60.00,Monday
8,-1.6662902470607773
10,64755471.31810478
739,65701700.073756638
2,1, 1, 1, 0,22, 0.00,60.00,Monday
11,64755471.31810478
47,7718975.745387423
87,17900687.60541542
186,16978617.886349895
213,0.08035672135011209
237,0.08035672135011209
561,12664198.010760114
649,0.0
662,9410686.092893305
740,65701700.073756638
764,65701700.073756638
789,0.0
814,82305.9772986289
2,1, 1, 1, 0,23, 0.00,60.00,Monday
8,-1.874803504688023
10,59122700.1187722
739,75637451.7543192
2,1, 1, 1, 0,23, 0.00,60.00,Monday
11,59122700.1187722
47,5174200.018754802
87,14988868.542127733
186,16784603.849437208
213,0.06981813494354002
237,0.06981813494354002
561,12664198.010760114
649,0.0
662,9410686.092893305
740,75637451.7543192
764,75637451.7543192
789,0.0
814,100143.60479903793
2,1, 1, 1, 0,24, 0.00,60.00,Monday
8,-1.665952381653312
10,37857416.89908518
739,77360524.31650833
2,1, 1, 1, 0,24, 0.00,60.00,Monday
11,37857416.89908518
47,3392857.046093146
87,12285036.554789165
186,0.0
213,0.038202375723823778
237,0.038202375723823778
561,12664198.010760114
649,0.0
662,9410686.092893305
740,77360524.31650833
764,77360524.31650833
789,0.0
814,104639.19454945115
3,1, 1, 1, 0,Monday
395,21.927902182299474,21.44581049447975,13,60,22.223373630074023, 7,60
2,2, 1, 2, 0, 1, 0.00,60.00,Tuesday
8,-2.450886200756528
10,31023929.40637466
739,77476527.30797166
2,2, 1, 2, 0, 1, 0.00,60.00,Tuesday
11,31023929.40637466
47,2629424.337098654
87,9581204.5674506
186,0.0
213,0.010538586406572078
237,0.010538586406572078
561,12664198.010760114
649,0.0
662,6044051.733612373
740,77476527.30797166
764,77476527.30797166
789,0.0
814,105050.7574529209
2,2, 1, 2, 0, 2, 0.00,60.00,Tuesday
8,-2.248902511226617
10,45908711.926995079
739,89759244.51350264
2,2, 1, 2, 0, 2, 0.00,60.00,Tuesday
11,45908711.926995079
47,2629424.337098654
87,8749256.263654115
186,15692625.314298919
213,0.005269293203286039
237,0.005269293203286039
561,12664198.010760114
649,0.0
662,6044051.733612373
740,89759244.51350264
764,89759244.51350264
789,0.0
814,129156.26757090615
2,2, 1, 2, 0, 3, 0.00,60.00,Tuesday
8,-2.248902511226617
10,29790867.222499666
739,84367213.24155285
2,2, 1, 2, 0, 3, 0.00,60.00,Tuesday
11,29790867.222499666
47,2629424.337098654
87,8333282.111755874
186,0.0
213,0.0013173233008215097
237,0.0013173233008215097
561,12664198.010760114
649,0.0
662,6044051.733612373
740,84367213.24155285
764,84367213.24155285
789,0.0
814,119911.02927264753
2,2, 1, 2, 0, 4, 0.00,60.00,Tuesday
8,-1.665952381653312
10,29579827.971629654
739,83037133.33255483
2,2, 1, 2, 0, 4, 0.00,60.00,Tuesday
11,29579827.971629654
47,2629424.337098654
87,8125295.035806755
186,0.0
213,0.0013173233008215097
237,0.0013173233008215097
561,12664198.010760114
649,0.0
662,6044051.733612373
740,83037133.33255483
764,83037133.33255483
789,0.0
814,116858.85435175646
2,2, 1, 2, 0, 5, 0.00,60.00,Tuesday
8,-2.8216230582487005
10,30593256.34535616
739,80747444.30329588
2,2, 1, 2, 0, 5, 0.00,60.00,Tuesday
11,30593256.34535616
47,3647334.6007658184
87,8125295.035806755
186,0.0
213,0.005269293203286039
237,0.005269293203286039
561,12664198.010760114
649,0.0
662,6044051.733612373
740,80747444.30329588
764,80747444.30329588
789,0.0
814,112376.96441110004
2,2, 1, 2, 0, 6, 0.00,60.00,Tuesday
8,-1.665952381653312
10,33409469.65752349
739,78301586.40398154
2,2, 1, 2, 0, 6, 0.00,60.00,Tuesday
11,33409469.65752349
47,5428677.618403947
87,9165230.415552358
186,0.0
213,0.035567729122180768
237,0.035567729122180768
561,12664198.010760114
649,0.0
662,6044051.733612373
740,78301586.40398154
764,78301586.40398154
789,0.0
814,107311.8791946991
2,2, 1, 2, 0, 7, 0.00,60.00,Tuesday
8,-1.665952381653312
10,74995223.40878664
739,77787256.54071588
2,2, 1, 2, 0, 7, 0.00,60.00,Tuesday
11,74995223.40878664
47,5683155.17307662
87,11453088.250992684
186,35678130.27202793
213,0.1238283902772219
237,0.1238283902772219
561,12664198.010760114
649,0.0
662,9410686.092893305
740,77787256.54071588
764,77787256.54071588
789,0.0
814,105965.6090359739
2,2, 1, 2, 0, 8, 0.00,60.00,Tuesday
8,-1.66561355779768
10,59408343.050889749
739,75012875.34014577
2,2, 1, 2, 0, 8, 0.00,60.00,Tuesday
11,59408343.050889749
47,5428677.618403947
87,13855199.557511282
186,17948862.435181489
213,0.13173233008215097
237,0.13173233008215097
561,12664198.010760114
649,0.0
662,9410686.092893305
740,75012875.34014577
764,75012875.34014577
789,0.0
814,100719.33613961633
2,2, 1, 2, 0, 9, 0.00,60.00,Tuesday
8,-1.66561355779768
10,67455947.45076594
739,73411654.80374058
2,2, 1, 2, 0, 9, 0.00,60.00,Tuesday
11,67455947.45076594
47,4506328.153078933
87,14399226.254278847
186,35788739.43012377
213,0.12646303687886494
237,0.12646303687886494
561,12664198.010760114
649,0.0
662,0.0
740,73411654.80374058
764,73411654.80374058
789,0.0
814,97455.60252428714
2,2, 1, 2, 0,10, 0.00,60.00,Tuesday
8,-1.1802458087361237
10,48925108.37100023
739,70247799.30613531
2,2, 1, 2, 0,10, 0.00,60.00,Tuesday
11,48925108.37100023
47,3997372.9987571148
87,14607213.330227966
186,17564633.51007242
213,0.11065515726900681
237,0.11065515726900681
561,12664198.010760114
649,0.0
662,0.0
740,70247799.30613531
764,70247799.30613531
789,0.0
814,91690.5211826141
2,2, 1, 2, 0,11, 0.00,60.00,Tuesday
8,-1.1799047350000767
10,49129730.66478684
739,65354685.685511987
2,2, 1, 2, 0,11, 0.00,60.00,Tuesday
11,49129730.66478684
47,3997372.9987571148
87,15023187.482126205
186,17362048.04914159
213,0.10011657086243474
237,0.10011657086243474
561,12664198.010760114
649,0.0
662,0.0
740,65354685.685511987
764,65354685.685511987
789,0.0
814,82924.1240018195
2,2, 1, 2, 0,12, 0.00,60.00,Tuesday
8,-0.817959937909318
10,48950545.927425149
739,57405905.06979865
2,2, 1, 2, 0,12, 0.00,60.00,Tuesday
11,48950545.927425149
47,3997372.9987571148
87,15231174.558075328
186,16988237.523677049
213,0.08035672135011209
237,0.08035672135011209
561,12664198.010760114
649,0.0
662,0.0
740,57405905.06979865
764,57405905.06979865
789,0.0
814,69562.83615554142
2,2, 1, 2, 0,13, 0.00,60.00,Tuesday
8,-0.9843616670581066
10,48386621.428755078
739,56700929.56903869
2,2, 1, 2, 0,13, 0.00,60.00,Tuesday
11,48386621.428755078
47,3878068.3387136266
87,14982862.727627993
186,16793854.63863839
213,0.06981813494354002
237,0.06981813494354002
561,12664198.010760114
649,0.0
662,0.0
740,56700929.56903869
764,56700929.56903869
789,0.0
814,67637.71301495053
2,2, 1, 2, 0,14, 0.00,60.00,Tuesday
8,-0.817959937909318
10,47780591.47329815
739,58654813.16107487
2,2, 1, 2, 0,14, 0.00,60.00,Tuesday
11,47780591.47329815
47,3997372.9987571148
87,14399226.254278847
186,16649304.07899393
213,0.06191419513861095
237,0.06191419513861095
561,12664198.010760114
649,0.0
662,0.0
740,58654813.16107487
764,58654813.16107487
789,0.0
814,70490.13050813697
2,2, 1, 2, 0,15, 0.00,60.00,Tuesday
8,-0.5975033634303576
10,47428136.41841471
739,57879636.116331737
2,2, 1, 2, 0,15, 0.00,60.00,Tuesday
11,47428136.41841471
47,3997372.9987571148
87,14191239.178329725
186,16505867.623421066
213,0.054010255333681898
237,0.054010255333681898
561,12664198.010760114
649,0.0
662,0.0
740,57879636.116331737
764,57879636.116331737
789,0.0
814,69458.60714669309
2,2, 1, 2, 0,16, 0.00,60.00,Tuesday
8,-0.5971565962370674
10,48957784.28487826
739,61485412.714556898
2,2, 1, 2, 0,16, 0.00,60.00,Tuesday
11,48957784.28487826
47,4760805.752728079
87,14815200.406177087
186,16642466.92177378
213,0.06191419513861095
237,0.06191419513861095
561,12664198.010760114
649,0.0
662,0.0
740,61485412.714556898
764,61485412.714556898
789,0.0
814,75113.19343920096
2,2, 1, 2, 0,17, 0.00,60.00,Tuesday
8,-0.5971565962370674
10,53427120.32520952
739,63465172.32185837
2,2, 1, 2, 0,17, 0.00,60.00,Tuesday
11,53427120.32520952
47,6542148.725389735
87,17311045.317566538
186,16830998.53813876
213,0.07245278154518305
237,0.07245278154518305
561,12664198.010760114
649,0.0
662,0.0
740,63465172.32185837
764,63465172.32185837
789,0.0
814,78729.73335438705
2,2, 1, 2, 0,18, 0.00,60.00,Tuesday
8,-1.1795657539051999
10,67775089.16517999
739,63199764.38909424
2,2, 1, 2, 0,18, 0.00,60.00,Tuesday
11,67775089.16517999
47,7210020.591065604
87,21134747.2157305
186,17276964.457133619
213,0.0961646009599702
237,0.0961646009599702
561,12664198.010760114
649,0.0
662,9410686.092893305
740,63199764.38909424
764,63199764.38909424
789,0.0
814,78472.7975968407
2,2, 1, 2, 0,19, 0.00,60.00,Tuesday
8,-1.020404023167408
10,69776613.44323553
739,59109530.26160075
2,2, 1, 2, 0,19, 0.00,60.00,Tuesday
11,69776613.44323553
47,8991363.60870373
87,21020493.74465223
186,17618029.177353529
213,0.11328980387064983
237,0.11328980387064983
561,12664198.010760114
649,0.0
662,9410686.092893305
740,59109530.26160075
764,59109530.26160075
789,0.0
814,71842.80887263749
2,2, 1, 2, 0,20, 0.00,60.00,Tuesday
8,-1.6649382965486524
10,79890398.83478463
739,65014783.19385756
2,2, 1, 2, 0,20, 0.00,60.00,Tuesday
11,79890398.83478463
47,10263751.472020042
87,19564584.213008387
186,27906292.607959585
213,0.10802051066736379
237,0.10802051066736379
561,12664198.010760114
649,0.0
662,9410686.092893305
740,65014783.19385756
764,65014783.19385756
789,0.0
814,80886.43814320115
2,2, 1, 2, 0,21, 0.00,60.00,Tuesday
8,-2.0970481657497048
10,75536874.43774954
739,62777644.17056427
2,2, 1, 2, 0,21, 0.00,60.00,Tuesday
11,75536874.43774954
47,10263751.472020042
87,18732635.909211905
186,24387920.443492824
213,0.09879924756161322
237,0.09879924756161322
561,12664198.010760114
649,0.0
662,9410686.092893305
740,62777644.17056427
764,62777644.17056427
789,0.0
814,77682.50937133542
2,2, 1, 2, 0,22, 0.00,60.00,Tuesday
8,-2.448595400822192
10,64762877.744852859
739,69995072.49697963
2,2, 1, 2, 0,22, 0.00,60.00,Tuesday
11,64762877.744852859
47,7718975.745387423
87,17900687.60541542
186,16978736.277487164
213,0.08035672135011209
237,0.08035672135011209
561,12664198.010760114
649,0.0
662,9410686.092893305
740,69995072.49697963
764,69995072.49697963
789,0.0
814,89594.01290942802
2,2, 1, 2, 0,23, 0.00,60.00,Tuesday
8,-3.0766921149082706
10,59120112.99850158
739,74150469.6421592
2,2, 1, 2, 0,23, 0.00,60.00,Tuesday
11,59120112.99850158
47,5174200.018754802
87,14988868.542127733
186,16784455.073749044
213,0.06981813494354002
237,0.06981813494354002
561,12664198.010760114
649,0.0
662,9410686.092893305
740,74150469.6421592
764,74150469.6421592
789,0.0
814,97705.26021657375
2,2, 1, 2, 0,24, 0.00,60.00,Tuesday
8,-3.0766921149082706
10,37859023.754826549
739,78483718.51455097
2,2, 1, 2, 0,24, 0.00,60.00,Tuesday
11,37859023.754826549
47,3392857.046093146
87,12285036.554789165
186,0.0
213,0.038202375723823778
237,0.038202375723823778
561,12664198.010760114
649,0.0
662,9410686.092893305
740,78483718.51455097
764,78483718.51455097
789,0.0
814,106246.0502908179
3,2, 1, 2, 0,Tuesday
395,21.002837442786473,20.59154756895099,24,60,21.656146264490315, 1,60
2,3, 1, 3, 0, 1, 0.00,60.00,Wednesday
8,-3.8400849580777196
10,31047548.79784865
739,89666532.5692743
2,3, 1, 3, 0, 1, 0.00,60.00,Wednesday
11,31047548.79784865
47,2629424.337098654
87,9581204.5674506
186,0.0
213,0.010538586406572078
237,0.010538586406572078
561,12664198.010760114
649,0.0
662,6044051.733612373
740,89666532.5692743
764,89666532.5692743
789,0.0
814,128670.14892691237
2,3, 1, 3, 0, 2, 0.00,60.00,Wednesday
8,-3.839424890680984
10,30200712.038705443
739,81446775.24686241
2,3, 1, 3, 0, 2, 0.00,60.00,Wednesday
11,30200712.038705443
47,2629424.337098654
87,8749256.263654115
186,0.0
213,0.005269293203286039
237,0.005269293203286039
561,12664198.010760114
649,0.0
662,6044051.733612373
740,81446775.24686241
764,81446775.24686241
789,0.0
814,113781.69358018614
2,3, 1, 3, 0, 3, 0.00,60.00,Wednesday
8,-4.1712791770681749
10,29785134.812996665
739,82209609.25164609
2,3, 1, 3, 0, 3, 0.00,60.00,Wednesday
11,29785134.812996665
47,2629424.337098654
87,8333282.111755874
186,0.0
213,0.0013173233008215097
237,0.0013173233008215097
561,12664198.010760114
649,0.0
662,6044051.733612373
740,82209609.25164609
764,82209609.25164609
789,0.0
814,114178.61976964763
2,3, 1, 3, 0, 4, 0.00,60.00,Wednesday
8,-4.310274787688259
10,29596904.680268349
739,92039995.34341447
2,3, 1, 3, 0, 4, 0.00,60.00,Wednesday
11,29596904.680268349
47,2629424.337098654
87,8125295.035806755
186,0.0
213,0.0013173233008215097
237,0.0013173233008215097
561,12664198.010760114
649,0.0
662,6044051.733612373
740,92039995.34341447
764,92039995.34341447
789,0.0
814,133935.5629904502
2,3, 1, 3, 0, 5, 0.00,60.00,Wednesday
8,-5.011897641093955
10,46316504.61183208
739,95537459.68160738
2,3, 1, 3, 0, 5, 0.00,60.00,Wednesday
11,46316504.61183208
47,3647334.6007658184
87,8125295.035806755
186,15693089.229832897
213,0.005269293203286039
237,0.005269293203286039
561,12664198.010760114
649,0.0
662,6044051.733612373
740,95537459.68160738
764,95537459.68160738
789,0.0
814,142536.00105413394
2,3, 1, 3, 0, 6, 0.00,60.00,Wednesday
8,-5.348283325588144
10,33439985.025517174
739,93162932.08235951
2,3, 1, 3, 0, 6, 0.00,60.00,Wednesday
11,33439985.025517174
47,5428677.618403947
87,9165230.415552358
186,0.0
213,0.035567729122180768
237,0.035567729122180768
561,12664198.010760114
649,0.0
662,6044051.733612373
740,93162932.08235951
764,93162932.08235951
789,0.0
814,137827.24718838445
2,3, 1, 3, 0, 7, 0.00,60.00,Wednesday
8,-5.654568022820762
10,75030867.44897089
739,93697290.34836097
2,3, 1, 3, 0, 7, 0.00,60.00,Wednesday
11,75030867.44897089
47,5683155.17307662
87,11453088.250992684
186,35681120.42726063
213,0.1238283902772219
237,0.1238283902772219
561,12664198.010760114
649,0.0
662,9410686.092893305
740,93697290.34836097
764,93697290.34836097
789,0.0
814,138619.49398752737
2,3, 1, 3, 0, 8, 0.00,60.00,Wednesday
8,-5.4788702207489179
10,59440985.302260037
739,90362843.01166028
2,3, 1, 3, 0, 8, 0.00,60.00,Wednesday
11,59440985.302260037
47,5428677.618403947
87,13855199.557511282
186,17950535.242488136
213,0.13173233008215097
237,0.13173233008215097
561,12664198.010760114
649,0.0
662,9410686.092893305
740,90362843.01166028
764,90362843.01166028
789,0.0
814,131688.7802032569
2,3, 1, 3, 0, 9, 0.00,60.00,Wednesday
8,-5.78833505928885
10,67480810.95901823
739,84387567.99445619
2,3, 1, 3, 0, 9, 0.00,60.00,Wednesday
11,67480810.95901823
47,4506328.153078933
87,14399226.254278847
186,35792041.38083152
213,0.12646303687886494
237,0.12646303687886494
561,12664198.010760114
649,0.0
662,0.0
740,84387567.99445619
764,84387567.99445619
789,0.0
814,119017.16006881609
2,3, 1, 3, 0,10, 0.00,60.00,Wednesday
8,-6.360779300234708
10,48971930.29587189
739,93947075.41482565
2,3, 1, 3, 0,10, 0.00,60.00,Wednesday
11,48971930.29587189
47,3997372.9987571148
87,14607213.330227966
186,17565753.25781893
213,0.11065515726900681
237,0.11065515726900681
561,12664198.010760114
649,0.0
662,0.0
740,93947075.41482565
764,93947075.41482565
789,0.0
814,137392.69830776295
2,3, 1, 3, 0,11, 0.00,60.00,Wednesday
8,-6.209417884049362
10,49172758.816354688
739,87309531.15056819
2,3, 1, 3, 0,11, 0.00,60.00,Wednesday
11,49172758.816354688
47,3997372.9987571148
87,15023187.482126205
186,17362898.88237509
213,0.10011657086243474
237,0.10011657086243474
561,12664198.010760114
649,0.0
662,0.0
740,87309531.15056819
764,87309531.15056819
789,0.0
814,125101.44233616385
2,3, 1, 3, 0,12, 0.00,60.00,Wednesday
8,-6.0824279633693039
10,48992329.285349588
739,80492063.49947594
2,3, 1, 3, 0,12, 0.00,60.00,Wednesday
11,48992329.285349588
47,3997372.9987571148
87,15231174.558075328
186,16988558.46709192
213,0.08035672135011209
237,0.08035672135011209
561,12664198.010760114
649,0.0
662,0.0
740,80492063.49947594
764,80492063.49947594
789,0.0
814,111025.25066510902
2,3, 1, 3, 0,13, 0.00,60.00,Wednesday
8,-6.550193446183367
10,48431248.52890367
739,81591126.39962206
2,3, 1, 3, 0,13, 0.00,60.00,Wednesday
11,48431248.52890367
47,3878068.3387136266
87,14982862.727627993
186,16793910.469183357
213,0.06981813494354002
237,0.06981813494354002
561,12664198.010760114
649,0.0
662,0.0
740,81591126.39962206
764,81591126.39962206
789,0.0
814,112208.98261857764
2,3, 1, 3, 0,14, 0.00,60.00,Wednesday
8,-6.889542842120662
10,47827713.77071019
739,84504343.71025826
2,3, 1, 3, 0,14, 0.00,60.00,Wednesday
11,47827713.77071019
47,3997372.9987571148
87,14399226.254278847
186,16649163.404565918
213,0.06191419513861095
237,0.06191419513861095
561,12664198.010760114
649,0.0
662,0.0
740,84504343.71025826
764,84504343.71025826
789,0.0
814,117753.10234820066
2,3, 1, 3, 0,15, 0.00,60.00,Wednesday
8,-7.3508378156906419
10,47470500.97291243
739,81507499.73533428
2,3, 1, 3, 0,15, 0.00,60.00,Wednesday
11,47470500.97291243
47,3997372.9987571148
87,14191239.178329725
186,16505529.08164974
213,0.054010255333681898
237,0.054010255333681898
561,12664198.010760114
649,0.0
662,0.0
740,81507499.73533428
764,81507499.73533428
789,0.0
814,112161.7034157316
2,3, 1, 3, 0,16, 0.00,60.00,Wednesday
8,-7.469274250048447
10,48281059.554168637
739,89204859.47796174
2,3, 1, 3, 0,16, 0.00,60.00,Wednesday
11,48281059.554168637
47,4760805.752728079
87,14815200.406177087
186,15913981.522769252
213,0.06191419513861095
237,0.06191419513861095
561,12664198.010760114
649,0.0
662,0.0
740,89204859.47796174
764,89204859.47796174
789,0.0
814,126873.86173409342
2,3, 1, 3, 0,17, 0.00,60.00,Wednesday
8,-7.904415557688695
10,38792625.16109916
739,91645210.30632913
2,3, 1, 3, 0,17, 0.00,60.00,Wednesday
11,38792625.16109916
47,6542148.725389735
87,17311045.317566538
186,2142540.2500735556
213,0.07245278154518305
237,0.07245278154518305
561,12664198.010760114
649,0.0
662,0.0
740,91645210.30632913
764,91645210.30632913
789,0.0
814,132692.85730921373
2,3, 1, 3, 0,18, 0.00,60.00,Wednesday
8,-8.367190283489729
10,83692562.17451369
739,91778854.71250192
2,3, 1, 3, 0,18, 0.00,60.00,Wednesday
11,83692562.17451369
47,7210020.591065604
87,21134747.2157305
186,33139752.113427905
213,0.0961646009599702
237,0.0961646009599702
561,12664198.010760114
649,0.0
662,9410686.092893305
740,91778854.71250192
764,91778854.71250192
789,0.0
814,133158.15063625069
2,3, 1, 3, 0,19, 0.00,60.00,Wednesday
8,-8.255558329956174
10,69834534.88565785
739,89643533.67210119
2,3, 1, 3, 0,19, 0.00,60.00,Wednesday
11,69834534.88565785
47,8991363.60870373
87,21020493.74465223
186,17619016.197222849
213,0.11328980387064983
237,0.11328980387064983
561,12664198.010760114
649,0.0
662,9410686.092893305
740,89643533.67210119
764,89643533.67210119
789,0.0
814,128777.23142563904
2,3, 1, 3, 0,20, 0.00,60.00,Wednesday
8,-8.816054925650735
10,69543149.92566787
739,85607425.21332456
2,3, 1, 3, 0,20, 0.00,60.00,Wednesday
11,69543149.92566787
47,10263751.472020042
87,19564584.213008387
186,17519676.579319929
213,0.10802051066736379
237,0.10802051066736379
561,12664198.010760114
649,0.0
662,9410686.092893305
740,85607425.21332456
764,85607425.21332456
789,0.0
814,120253.55766608229
2,3, 1, 3, 0,21, 0.00,60.00,Wednesday
8,-8.816054925650735
10,85880738.50594646
739,87447693.48947291
2,3, 1, 3, 0,21, 0.00,60.00,Wednesday
11,85880738.50594646
47,10263751.472020042
87,18732635.909211905
186,34686182.34607616
213,0.09879924756161322
237,0.09879924756161322
561,12664198.010760114
649,0.0
662,9410686.092893305
740,87447693.48947291
764,87447693.48947291
789,0.0
814,123284.67498493297
2,3, 1, 3, 0,22, 0.00,60.00,Wednesday
8,-10.14379348977496
10,64802406.76662812
739,90335580.63248372
2,3, 1, 3, 0,22, 0.00,60.00,Wednesday
11,64802406.76662812
47,7718975.745387423
87,17900687.60541542
186,16978905.207205777
213,0.08035672135011209
237,0.08035672135011209
561,12664198.010760114
649,0.0
662,9410686.092893305
740,90335580.63248372
764,90335580.63248372
789,0.0
814,128954.10496607372
2,3, 1, 3, 0,23, 0.00,60.00,Wednesday
8,-9.490273946420136
10,59162116.084051039
739,95341323.68849983
2,3, 1, 3, 0,23, 0.00,60.00,Wednesday
11,59162116.084051039
47,5174200.018754802
87,14988868.542127733
186,16784361.258576428
213,0.06981813494354002
237,0.06981813494354002
561,12664198.010760114
649,0.0
662,9410686.092893305
740,95341323.68849983
764,95341323.68849983
789,0.0
814,139802.16093865294
2,3, 1, 3, 0,24, 0.00,60.00,Wednesday
8,-9.592938811400991
10,37901792.13061213
739,99270107.17940824
2,3, 1, 3, 0,24, 0.00,60.00,Wednesday
11,37901792.13061213
47,3392857.046093146
87,12285036.554789165
186,0.0
213,0.038202375723823778
237,0.038202375723823778
561,12664198.010760114
649,0.0
662,9410686.092893305
740,99270107.17940824
764,99270107.17940824
789,0.0
814,149014.4260763991
3,3, 1, 3, 0,Wednesday