Program Version,EnergyPlus, Version 9.1.0-08d2e308bb, YMD=2019.12.31 12:47
1,5,Environment Title[],Latitude[deg],Longitude[deg],Time Zone[],Elevation[m]
2,8,Day of Simulation[],Month[],Day of Month[],DST Indicator[1=yes 0=no],Hour[],StartMinute[],EndMinute[],DayType
3,5,Cumulative Day of Simulation[],Month[],Day of Month[],DST Indicator[1=yes 0=no],DayType  ! When Daily Report Variables Requested
4,2,Cumulative Days of Simulation[],Month[]  ! When Monthly Report Variables Requested
5,1,Cumulative Days of Simulation[] ! When Run Period Report Variables Requested
6,1,Calendar Year of Simulation[] ! When Annual Report Variables Requested
7,9,Environment,Site Outdoor Air Drybulb Temperature [C] !Monthly [Value,Min,Day,Hour,Minute,Max,Day,Hour,Minute]
8,1,Environment,Site Outdoor Air Wetbulb Temperature [C] !TimeStep
692,1,BUILDING STORY 1 THERMALZONE,Zone Air Temperature [C] !Hourly
693,7,BUILDING STORY 1 THERMALZONE,Zone Air Relative Humidity [%] !Daily [Value,Min,Hour,Minute,Max,Hour,Minute]
732,1,BUILDING STORY 2 THERMALZONE,Zone Air Temperature [C] !Hourly
733,7,BUILDING STORY 2 THERMALZONE,Zone Air Relative Humidity [%] !Daily [Value,Min,Hour,Minute,Max,Hour,Minute]
772,1,BUILDING STORY 3 THERMALZONE,Zone Air Temperature [C] !Hourly
773,7,BUILDING STORY 3 THERMALZONE,Zone Air Relative Humidity [%] !Daily [Value,Min,Hour,Minute,Max,Hour,Minute]
812,1,BUILDING STORY 4 THERMALZONE,Zone Air Temperature [C] !Hourly
813,7,BUILDING STORY 4 THERMALZONE,Zone Air Relative Humidity [%] !Daily [Value,Min,Hour,Minute,Max,Hour,Minute]
11,1,Electricity:Facility [J] !TimeStep
252,1,Gas:Facility [J] !TimeStep
End of Data Dictionary
1,BUFFALO NIAGARA INTL AP ANN CLG .4% CONDNS DB=>MWB,  42.93, -78.73,  -5.00, 215.00
2,1, 7,21, 0, 1, 0.00,60.00,SummerDesignDay
8,19.36840579326866
11,18595612129.739229
252,11483093431.488966
2,1, 7,21, 0, 1, 0.00,60.00,SummerDesignDay
692,24.053790458507036
732,26.375171055330108
772,26.244187359235395
812,25.975442755923369
2,1, 7,21, 0, 2, 0.00,60.00,SummerDesignDay
8,19.25226217922265
11,17943801560.887426
252,6642334253.593693
2,1, 7,21, 0, 2, 0.00,60.00,SummerDesignDay
692,24.03241806247689
732,26.67677155258524
772,26.635617492485819
812,26.503347632595223
2,1, 7,21, 0, 3, 0.00,60.00,SummerDesignDay
8,19.164819553782637
11,17961326822.37561
252,6457276570.74201
2,1, 7,21, 0, 3, 0.00,60.00,SummerDesignDay
692,24.031215274779148
732,26.698555122420076
772,26.695806802086027
812,26.559687040885078
2,1, 7,21, 0, 4, 0.00,60.00,SummerDesignDay
8,19.0770792448193
11,17941534655.698484
252,6457276570.74201
2,1, 7,21, 0, 4, 0.00,60.00,SummerDesignDay
692,24.027636975965284
732,26.69927466216053
772,26.698702281303
812,26.536605479430614
2,1, 7,21, 0, 5, 0.00,60.00,SummerDesignDay
8,19.018427637799467
11,17932172957.99659
252,6457276570.74201
2,1, 7,21, 0, 5, 0.00,60.00,SummerDesignDay
692,24.02226917101704
732,26.699404174851119
772,26.69921507445856
812,26.541419852260224
2,1, 7,21, 0, 6, 0.00,60.00,SummerDesignDay
8,19.0770792448193
11,17161106076.675084
252,6457276570.74201
2,1, 7,21, 0, 6, 0.00,60.00,SummerDesignDay
692,24.05983974225427
732,25.765296518017494
772,25.766846560677686
812,26.617612069395084
2,1, 7,21, 0, 7, 0.00,60.00,SummerDesignDay
8,19.281346189070228
11,17839527978.868036
252,11408673970.439888
2,1, 7,21, 0, 7, 0.00,60.00,SummerDesignDay
692,24.00323850305744
732,25.108107823239167
772,25.10993230633008
812,26.201995492564895
2,1, 7,21, 0, 8, 0.00,60.00,SummerDesignDay
8,19.770887505670989
11,19757724070.629346
252,12827009976.945118
2,1, 7,21, 0, 8, 0.00,60.00,SummerDesignDay
692,23.985729846146364
732,24.11327829988152
772,24.114869721161769
812,26.03232208460716
2,1, 7,21, 0, 9, 0.00,60.00,SummerDesignDay
8,20.30732185289352
11,19867659574.746755
252,12792979605.772797
2,1, 7,21, 0, 9, 0.00,60.00,SummerDesignDay
692,23.97675130567506
732,24.001803753717213
772,24.001930634806006
812,25.983639706249674
2,1, 7,21, 0,10, 0.00,60.00,SummerDesignDay
8,20.778037156782458
11,20001563040.944154
252,12424288979.677351
2,1, 7,21, 0,10, 0.00,60.00,SummerDesignDay
692,23.97373682898345
732,23.999311632662914
772,23.999363192339414
812,25.976122409129624
2,1, 7,21, 0,11, 0.00,60.00,SummerDesignDay
8,21.186337137460165
11,20120312578.5754
252,12377344449.578003
2,1, 7,21, 0,11, 0.00,60.00,SummerDesignDay
692,23.97229338611964
732,23.998393185402095
772,23.998423160956496
812,25.972082464856073
2,1, 7,21, 0,12, 0.00,60.00,SummerDesignDay
8,21.45495938709981
11,20353468321.449644
252,12424919122.314538
2,1, 7,21, 0,12, 0.00,60.00,SummerDesignDay
692,23.971608611140618
732,23.998109850518778
772,23.998119734576329
812,25.96998007888193
2,1, 7,21, 0,13, 0.00,60.00,SummerDesignDay
8,21.667839996742449
11,20406996551.22467
252,12287140044.428158
2,1, 7,21, 0,13, 0.00,60.00,SummerDesignDay
692,23.971196701525729
732,23.997998280244905
772,23.997973829651359
812,25.968894828509684
2,1, 7,21, 0,14, 0.00,60.00,SummerDesignDay
8,21.799990419629109
11,20441001149.034746
252,12109349168.140652
2,1, 7,21, 0,14, 0.00,60.00,SummerDesignDay
692,23.970894004505135
732,23.997877490574756
772,23.997828572923255
812,25.96833937837885
2,1, 7,21, 0,15, 0.00,60.00,SummerDesignDay
8,21.799990419629109
11,20334471842.465337
252,11955094664.024819
2,1, 7,21, 0,15, 0.00,60.00,SummerDesignDay
692,23.97076115411132
732,23.997765056381529
772,23.997701199947387
812,25.968147205156499
2,1, 7,21, 0,16, 0.00,60.00,SummerDesignDay
8,21.641326796728476
11,20223151060.254236
252,11954880826.34323
2,1, 7,21, 0,16, 0.00,60.00,SummerDesignDay
692,23.970774134849149
732,23.99772733653444
772,23.997650629342958
812,25.968213466836539
2,1, 7,21, 0,17, 0.00,60.00,SummerDesignDay
8,21.42822317147698
11,20070196307.964105
252,11954663425.161755
2,1, 7,21, 0,17, 0.00,60.00,SummerDesignDay
692,23.9708374706393
732,23.997741517871146
772,23.997656717293766
812,25.968377132773399
2,1, 7,21, 0,18, 0.00,60.00,SummerDesignDay
8,21.15931786227956
11,19996566187.548307
252,12377324664.271855
2,1, 7,21, 0,18, 0.00,60.00,SummerDesignDay
692,23.97093248574506
732,23.997783805493577
772,23.99769882831613
812,25.968566986653973
2,1, 7,21, 0,19, 0.00,60.00,SummerDesignDay
8,20.750583661392644
11,19893767370.836328
252,12793779311.189438
2,1, 7,21, 0,19, 0.00,60.00,SummerDesignDay
692,23.971078616462998
732,23.99787542136645
772,23.997797627242187
812,25.968818534760467
2,1, 7,21, 0,20, 0.00,60.00,SummerDesignDay
8,20.446661088459409
11,19603196773.752454
252,12827633190.161774
2,1, 7,21, 0,20, 0.00,60.00,SummerDesignDay
692,23.97120157287845
732,23.998015224615754
772,23.997941399750798
812,25.969011507124806
2,1, 7,21, 0,21, 0.00,60.00,SummerDesignDay
8,20.19530361990708
11,20179866960.296899
252,12469205942.99892
2,1, 7,21, 0,21, 0.00,60.00,SummerDesignDay
692,23.971078400112036
732,23.998057958169576
772,23.99798195502918
812,25.968912947205636
2,1, 7,21, 0,22, 0.00,60.00,SummerDesignDay
8,19.941485234887624
11,20090705793.41461
252,12792852836.528738
2,1, 7,21, 0,22, 0.00,60.00,SummerDesignDay
692,23.970882969356454
732,23.99795857191142
772,23.997893195765586
812,25.968710985199878
2,1, 7,21, 0,23, 0.00,60.00,SummerDesignDay
8,19.7423381019073
11,19343423737.35804
252,12424564355.445488
2,1, 7,21, 0,23, 0.00,60.00,SummerDesignDay
692,23.985188277360878
732,25.569112900080947
772,25.440333122608544
812,25.98111199439674
2,1, 7,21, 0,24, 0.00,60.00,SummerDesignDay
8,19.54165603023991
11,18852050294.47444
252,11890422401.055802
2,1, 7,21, 0,24, 0.00,60.00,SummerDesignDay
692,23.98232480951905
732,26.06106394645743
772,25.93119692860039
812,25.978507999655048
3,1, 7,21, 0,SummerDesignDay
693,61.150125766840599,60.64231843498793,17,60,61.73500163945651, 2,60
733,46.46878368204265,41.647317951117248, 5,60,49.60690289856598,22,60
773,46.71576564519223,41.7490707207119, 5,60,49.89110360720647,22,60
813,51.108951899805727,50.06940225713523,15,60,52.13821827108658, 1,60
4,1, 7
7,25.312875000000003,21.0,21, 5,60,30.3,21,14,60
1,BUFFALO NIAGARA INTL AP ANN CLG .4% CONDNS WB=>MDB,  42.93, -78.73,  -5.00, 215.00
2,1, 7,21, 0, 1, 0.00,60.00,SummerDesignDay
8,19.615996954992807
11,18624200122.86901
252,11483093431.488966
2,1, 7,21, 0, 1, 0.00,60.00,SummerDesignDay
692,24.033090415375356
732,26.26204108301986
772,26.11841733238615
812,25.97381337364464
2,1, 7,21, 0, 2, 0.00,60.00,SummerDesignDay
8,19.243988037109376
11,17948231526.607915
252,6642334253.593693
2,1, 7,21, 0, 2, 0.00,60.00,SummerDesignDay
692,24.01593739585462
732,26.56581903195426
772,26.48180029798477
812,26.30745514350008
2,1, 7,21, 0, 3, 0.00,60.00,SummerDesignDay
8,18.96499632356402
11,17866905480.09735
252,6457276570.74201
2,1, 7,21, 0, 3, 0.00,60.00,SummerDesignDay
692,24.013481280439213
732,26.681258738018348
772,26.67028964231319
812,26.332536573694065
2,1, 7,21, 0, 4, 0.00,60.00,SummerDesignDay
8,18.685989379882814
11,17782873412.518754
252,6457276570.74201
2,1, 7,21, 0, 4, 0.00,60.00,SummerDesignDay
692,24.009338131766225
732,26.69630082997108
772,26.694270329834159
812,26.306356570413173
2,1, 7,21, 0, 5, 0.00,60.00,SummerDesignDay
8,18.49999810986028
11,17724782755.780336
252,6457276570.74201
2,1, 7,21, 0, 5, 0.00,60.00,SummerDesignDay
692,24.00406603541122
732,26.698818345649725
772,26.698357971477475
812,26.300603147543357
2,1, 7,21, 0, 6, 0.00,60.00,SummerDesignDay
8,18.685989379882814
11,16991581425.533389
252,6457276570.74201
2,1, 7,21, 0, 6, 0.00,60.00,SummerDesignDay
692,24.04071218652164
732,25.763859635354757
772,25.76522585031407
812,26.36937426889754
2,1, 7,21, 0, 7, 0.00,60.00,SummerDesignDay
8,19.336990356445314
11,17753561276.880949
252,11408673970.439888
2,1, 7,21, 0, 7, 0.00,60.00,SummerDesignDay
692,23.997193030014285
732,25.106289549637304
772,25.107945111687806
812,26.111555177819555
2,1, 7,21, 0, 8, 0.00,60.00,SummerDesignDay
8,20.917992548817627
11,20182283624.989748
252,12827009976.945118
2,1, 7,21, 0, 8, 0.00,60.00,SummerDesignDay
692,23.984587985743269
732,24.111551358490318
772,24.113023934415005
812,26.008515241144968
2,1, 7,21, 0, 9, 0.00,60.00,SummerDesignDay
8,22.420023807696297
11,21261676966.770299
252,12792979605.772797
2,1, 7,21, 0, 9, 0.00,60.00,SummerDesignDay
692,23.976658174609285
732,24.00147379155537
772,24.001555112637964
812,25.976828679068974
2,1, 7,21, 0,10, 0.00,60.00,SummerDesignDay
8,22.854695006230427
11,21739603152.690366
252,12424288979.677351
2,1, 7,21, 0,10, 0.00,60.00,SummerDesignDay
692,23.97364960016666
732,23.998974507469599
772,23.99897224289411
812,25.970431676492887
2,1, 7,21, 0,11, 0.00,60.00,SummerDesignDay
8,23.232104587122938
11,22208117830.35158
252,12377344449.578003
2,1, 7,21, 0,11, 0.00,60.00,SummerDesignDay
692,23.972181809721229
732,23.998028104005358
772,23.998000108332414
812,25.966962662212496
2,1, 7,21, 0,12, 0.00,60.00,SummerDesignDay
8,23.480593542408348
11,22354161177.284727
252,12424919122.314538
2,1, 7,21, 0,12, 0.00,60.00,SummerDesignDay
692,23.971501470942728
732,23.997740605051466
772,23.99768977313649
812,25.965277674119453
2,1, 7,21, 0,13, 0.00,60.00,SummerDesignDay
8,23.677626430315248
11,22288652523.60593
252,12287140044.428158
2,1, 7,21, 0,13, 0.00,60.00,SummerDesignDay
692,23.971100256228426
732,23.99762996705512
772,23.997543684430434
812,25.964450699261858
2,1, 7,21, 0,14, 0.00,60.00,SummerDesignDay
8,23.799986320868798
11,22222869614.258958
252,12109349168.140652
2,1, 7,21, 0,14, 0.00,60.00,SummerDesignDay
692,23.970807502111638
732,23.997504397111759
772,23.997390920487
812,25.964049398394047
2,1, 7,21, 0,15, 0.00,60.00,SummerDesignDay
8,23.799986320868798
11,22104314004.79516
252,11955094664.024819
2,1, 7,21, 0,15, 0.00,60.00,SummerDesignDay
692,23.970685206804246
732,23.997389870481855
772,23.997259054169456
812,25.963968151329316
2,1, 7,21, 0,16, 0.00,60.00,SummerDesignDay
8,23.653081835774505
11,22081061242.65296
252,11954880826.34323
2,1, 7,21, 0,16, 0.00,60.00,SummerDesignDay
692,23.970710679978234
732,23.997353311595114
772,23.997208812128887
812,25.964121273175384
2,1, 7,21, 0,17, 0.00,60.00,SummerDesignDay
8,23.4558543827806
11,22049161791.09394
252,11954663425.161755
2,1, 7,21, 0,17, 0.00,60.00,SummerDesignDay
692,23.97078388650248
732,23.997369522441465
772,23.997217146668448
812,25.964343363732224
2,1, 7,21, 0,18, 0.00,60.00,SummerDesignDay
8,23.207119318496696
11,22153269510.193117
252,12377324664.271855
2,1, 7,21, 0,18, 0.00,60.00,SummerDesignDay
692,23.970885171388237
732,23.99741560623323
772,23.997264218876727
812,25.96457243289004
2,1, 7,21, 0,19, 0.00,60.00,SummerDesignDay
8,22.82933132300861
11,22202425131.720819
252,12793779311.189438
2,1, 7,21, 0,19, 0.00,60.00,SummerDesignDay
692,23.971037558256673
732,23.99751416400674
772,23.99737219553799
812,25.964859450620538
2,1, 7,21, 0,20, 0.00,60.00,SummerDesignDay
8,22.548645905899027
11,21049255683.496408
252,12827633190.161774
2,1, 7,21, 0,20, 0.00,60.00,SummerDesignDay
692,23.971154034522884
732,23.997661885111975
772,23.997525602237034
812,25.96506360673676
2,1, 7,21, 0,21, 0.00,60.00,SummerDesignDay
8,22.312987690310977
11,21442673013.908525
252,12469205942.99892
2,1, 7,21, 0,21, 0.00,60.00,SummerDesignDay
692,23.97102364413677
732,23.99769266452316
772,23.99755375923793
812,25.964928106721389
2,1, 7,21, 0,22, 0.00,60.00,SummerDesignDay
8,21.475995587251039
11,20794709213.725477
252,12792852836.528738
2,1, 7,21, 0,22, 0.00,60.00,SummerDesignDay
692,23.970745786551796
732,23.99756308387339
772,23.99743395683211
812,25.96462022850978
2,1, 7,21, 0,23, 0.00,60.00,SummerDesignDay
8,20.824995071347869
11,19764158336.110937
252,12424564355.445488
2,1, 7,21, 0,23, 0.00,60.00,SummerDesignDay
692,23.98513773265928
732,25.50484611777018
772,25.37112379060275
812,25.979320706293455
2,1, 7,21, 0,24, 0.00,60.00,SummerDesignDay
8,20.173995840857065
11,19033316820.845308
252,11890422401.055802
2,1, 7,21, 0,24, 0.00,60.00,SummerDesignDay
692,23.98224860829665
732,25.96841485390481
772,25.829580340509965
812,25.976816395436843
3,1, 7,21, 0,SummerDesignDay
693,61.571414080748038,61.13620286478872,16,60,61.979958593939347, 2,60
733,47.15821189929733,41.90266859961339, 5,60,50.40064059954352,22,60
773,47.48924014963594,42.033982318862957, 5,60,50.78840258397961,22,60
813,52.702173366369979,51.92134513827318,15,60,53.56120834718935,21,60
4,1, 7
7,22.812875000000003,18.5,21, 5,60,27.8,21,14,60
1,BUFFALO NIAGARA INTL AP ANN HTG 99.6% CONDNS DB,  42.93, -78.73,  -5.00, 215.00
2,1, 1,21, 0, 1, 0.00,60.00,WinterDesignDay
8,-16.3
11,4251252774.972283
252,38027757379.63728
2,1, 1,21, 0, 1, 0.00,60.00,WinterDesignDay
692,13.903887486960297
732,15.738700664911374
772,15.68100477887475
812,18.992374834819786
2,1, 1,21, 0, 2, 0.00,60.00,WinterDesignDay
8,-16.3
11,3866269626.0320947
252,32124340900.464254
2,1, 1,21, 0, 2, 0.00,60.00,WinterDesignDay
692,13.903864080076563
732,15.600678596011932
772,15.59945672331703
812,18.992192972012398
2,1, 1,21, 0, 3, 0.00,60.00,WinterDesignDay
8,-16.3
11,3866362036.565942
252,32188226098.77079
2,1, 1,21, 0, 3, 0.00,60.00,WinterDesignDay
692,13.9038421551843
732,15.601088176195113
772,15.600131720237702
812,18.99203377691406
2,1, 1,21, 0, 4, 0.00,60.00,WinterDesignDay
8,-16.3
11,3866570469.715649
252,32329222638.904375
2,1, 1,21, 0, 4, 0.00,60.00,WinterDesignDay
692,13.90382186347941
732,15.600338892951508
772,15.597828501600839
812,18.991954623658264
2,1, 1,21, 0, 5, 0.00,60.00,WinterDesignDay
8,-16.3
11,3866746152.345165
252,32441486804.34933
2,1, 1,21, 0, 5, 0.00,60.00,WinterDesignDay
692,13.90380267776916
732,15.600661506913461
772,15.60268704763482
812,18.991906543069619
2,1, 1,21, 0, 6, 0.00,60.00,WinterDesignDay
8,-16.3
11,3870948577.6891415
252,33613863255.7479
2,1, 1,21, 0, 6, 0.00,60.00,WinterDesignDay
692,13.903784936019973
732,17.512204065067999
772,17.511067497836288
812,18.99186445662952
2,1, 1,21, 0, 7, 0.00,60.00,WinterDesignDay
8,-16.3
11,3942533357.6907389
252,41093484425.11144
2,1, 1,21, 0, 7, 0.00,60.00,WinterDesignDay
692,13.90376747007084
732,19.42889400764843
772,19.406509503886107
812,18.9918333413488
2,1, 1,21, 0, 8, 0.00,60.00,WinterDesignDay
8,-16.3
11,3945607190.6204259
252,41641584502.42615
2,1, 1,21, 0, 8, 0.00,60.00,WinterDesignDay
692,13.90375157364307
732,20.783670724567096
772,20.71343166057816
812,18.991810778998894
2,1, 1,21, 0, 9, 0.00,60.00,WinterDesignDay
8,-16.3
11,2963231780.57482
252,40936071490.10013
2,1, 1,21, 0, 9, 0.00,60.00,WinterDesignDay
692,13.903735987866938
732,20.996182373995905
772,20.99608064293483
812,18.991793157012613
2,1, 1,21, 0,10, 0.00,60.00,WinterDesignDay
8,-16.3
11,3957249075.707411
252,42184237690.78874
2,1, 1,21, 0,10, 0.00,60.00,WinterDesignDay
692,13.903721352422729
732,21.00013417636087
772,21.00118796398702
812,18.991778636682239
2,1, 1,21, 0,11, 0.00,60.00,WinterDesignDay
8,-16.3
11,3838097403.350317
252,41831193680.91535
2,1, 1,21, 0,11, 0.00,60.00,WinterDesignDay
692,13.903707755750144
732,21.002218568217537
772,20.996995933864697
812,18.991766238443039
2,1, 1,21, 0,12, 0.00,60.00,WinterDesignDay
8,-16.3
11,3936056818.615297
252,41934989739.870388
2,1, 1,21, 0,12, 0.00,60.00,WinterDesignDay
692,13.903694907232984
732,21.001381954735334
772,20.996167437594115
812,18.99175593863985
2,1, 1,21, 0,13, 0.00,60.00,WinterDesignDay
8,-16.3
11,3924043377.217694
252,41842686373.29194
2,1, 1,21, 0,13, 0.00,60.00,WinterDesignDay
692,13.90368274811417
732,20.998927519964675
772,21.00328153612937
812,18.991747500908308
2,1, 1,21, 0,14, 0.00,60.00,WinterDesignDay
8,-16.3
11,3826038097.471745
252,41531528151.475009
2,1, 1,21, 0,14, 0.00,60.00,WinterDesignDay
692,13.90367126709205
732,21.00221824608758
772,21.004163665521216
812,18.99174062633044
2,1, 1,21, 0,15, 0.00,60.00,WinterDesignDay
8,-16.3
11,3729694822.11372
252,41220842749.547748
2,1, 1,21, 0,15, 0.00,60.00,WinterDesignDay
692,13.90366042776979
732,21.003568440025096
772,21.0021246097196
812,18.99173500462236
2,1, 1,21, 0,16, 0.00,60.00,WinterDesignDay
8,-16.3
11,3718358145.745104
252,41167880347.62248
2,1, 1,21, 0,16, 0.00,60.00,WinterDesignDay
692,13.903650191414588
732,20.99933545874029
772,20.995322991841424
812,18.991730429009587
2,1, 1,21, 0,17, 0.00,60.00,WinterDesignDay
8,-16.3
11,3628396697.811627
252,41122824356.7691
2,1, 1,21, 0,17, 0.00,60.00,WinterDesignDay
692,13.90364052376617
732,21.002519251185718
772,21.00125233898296
812,18.991726684668348
2,1, 1,21, 0,18, 0.00,60.00,WinterDesignDay
8,-16.3
11,4703801259.559794
252,41100089069.95383
2,1, 1,21, 0,18, 0.00,60.00,WinterDesignDay
692,13.903631393459845
732,21.003163380379143
772,20.99942354023027
812,18.99172361585175
2,1, 1,21, 0,19, 0.00,60.00,WinterDesignDay
8,-16.3
11,4996331531.164996
252,41561147023.19367
2,1, 1,21, 0,19, 0.00,60.00,WinterDesignDay
692,13.903622770708255
732,21.004613897913968
772,20.997417701753535
812,18.99172110251684
2,1, 1,21, 0,20, 0.00,60.00,WinterDesignDay
8,-16.3
11,4980992140.6820349
252,41539059483.59002
2,1, 1,21, 0,20, 0.00,60.00,WinterDesignDay
692,13.903614628431395
732,21.001501597885836
772,20.999631161550306
812,18.991719061857098
2,1, 1,21, 0,21, 0.00,60.00,WinterDesignDay
8,-16.3
11,4859098547.486893
252,41521822674.7163
2,1, 1,21, 0,21, 0.00,60.00,WinterDesignDay
692,13.903606938355571
732,21.001950405934509
772,20.999996510303537
812,18.991717387921186
2,1, 1,21, 0,22, 0.00,60.00,WinterDesignDay
8,-16.3
11,4964235584.8868479
252,41504348182.7467
2,1, 1,21, 0,22, 0.00,60.00,WinterDesignDay
692,13.903599674992167
732,21.00159756388587
772,20.995085328374914
812,18.99171601211223
2,1, 1,21, 0,23, 0.00,60.00,WinterDesignDay
8,-16.3
11,4646443574.679931
252,38664166496.531879
2,1, 1,21, 0,23, 0.00,60.00,WinterDesignDay
692,13.903592962118023
732,17.79790259990635
772,17.732691847922657
812,18.99757646912273
2,1, 1,21, 0,24, 0.00,60.00,WinterDesignDay
8,-16.3
11,4455176572.79535
252,38253919448.445758
2,1, 1,21, 0,24, 0.00,60.00,WinterDesignDay
692,13.903586525266532
732,16.305393911562953
772,16.186221747596794
812,18.99279068680163
3,1, 1,21, 0,WinterDesignDay
693,9.222981908868002,9.222867995945288, 1,20,9.223053975922815,24,25
733,6.608979043810492,5.888422030992438,19,60,8.266545684311751, 4,60
773,6.616084981945242,5.888585299466451,14,60,8.267875863491814, 4,60
813,6.670229205112954,6.667157111772716,23,60,6.670394483965382,22,60
4,1, 1
7,-16.300000000000009,-16.3,21, 1,60,-16.3,21, 1,60
End of Data
 Number of Records Written=         519
