Program Version,EnergyPlus, Version 9.1.0-08d2e308bb, YMD=2019.12.31 12:46
1,5,Environment Title[],Latitude[deg],Longitude[deg],Time Zone[],Elevation[m]
2,8,Day of Simulation[],Month[],Day of Month[],DST Indicator[1=yes 0=no],Hour[],StartMinute[],EndMinute[],DayType
3,5,Cumulative Day of Simulation[],Month[],Day of Month[],DST Indicator[1=yes 0=no],DayType  ! When Daily Report Variables Requested
4,2,Cumulative Days of Simulation[],Month[]  ! When Monthly Report Variables Requested
5,1,Cumulative Days of Simulation[] ! When Run Period Report Variables Requested
6,1,Calendar Year of Simulation[] ! When Annual Report Variables Requested
7,9,Environment,Site Outdoor Air Drybulb Temperature [C] !Monthly [Value,Min,Day,Hour,Minute,Max,Day,Hour,Minute]
8,1,Environment,Site Outdoor Air Wetbulb Temperature [C] !TimeStep
545,7,BUILDING STORY 1 THERMALZONE,Zone Air Relative Humidity [%] !Daily [Value,Min,Hour,Minute,Max,Hour,Minute]
915,1,Heating:Electricity [J] !Hourly
941,1,Heating:Gas [J] !Hourly
889,1,Cooling:Electricity [J] !Hourly
48,1,InteriorLights:Electricity [J] !Hourly
761,1,ExteriorLights:Electricity [J] !Hourly
86,1,InteriorEquipment:Electricity [J] !Hourly
160,1,InteriorEquipment:Gas [J] !Hourly
715,1,Fans:Electricity [J] !Hourly
1008,1,Pumps:Electricity [J] !Hourly
863,1,HeatRecovery:Electricity [J] !Hourly
258,1,WaterSystems:Electricity [J] !Hourly
408,1,WaterSystems:Gas [J] !Hourly
309,1,WaterSystems:Water [m3] !Hourly
12,1,Electricity:Facility [J] !Hourly
124,1,Gas:Facility [J] !Hourly
285,1,Water:Facility [m3] !Hourly
11,1,Electricity:Facility [J] !TimeStep
123,1,Gas:Facility [J] !TimeStep
End of Data Dictionary
1,RUN PERIOD 1,  42.93, -78.73,  -5.00, 215.00
2,1, 1, 1, 0, 1, 0.00,60.00,Monday
8,-1.1802458087361237
11,133470366.72084257
123,406180932.5946411
2,1, 1, 1, 0, 1, 0.00,60.00,Monday
12,133470366.72084257
48,22332951.10826934
86,35224072.69860412
124,406180932.5946411
160,39631247.733802799
258,23259125.511811325
285,0.40833481098217896
309,0.40833481098217896
408,366549684.8608383
715,0.0
761,52654217.4
863,0.0
889,0.0
915,0.0
941,0.0
1008,0.0021577741057663857
2,1, 1, 1, 0, 2, 0.00,60.00,Monday
8,-1.1802458087361237
11,98842412.19054133
123,29334473.641718005
2,1, 1, 1, 0, 2, 0.00,60.00,Monday
12,98842412.19054133
48,22332951.10826934
86,23482715.132402749
124,29334473.641718005
160,26420831.8225352
258,372528.54986923726
285,0.0
309,0.0
408,2913641.819182806
715,0.0
761,52654217.4
863,0.0
889,0.0
915,0.0
941,0.0
1008,0.0
2,1, 1, 1, 0, 3, 0.00,60.00,Monday
8,-1.87387394903547
11,110583702.13951618
123,39631247.733802799
2,1, 1, 1, 0, 3, 0.00,60.00,Monday
12,110583702.13951618
48,22332951.10826934
86,35224072.69860412
124,39631247.733802799
160,39631247.733802799
258,372460.9326427169
285,0.0
309,0.0
408,0.0
715,0.0
761,52654217.4
863,0.0
889,0.0
915,0.0
941,0.0
1008,0.0
2,1, 1, 1, 0, 4, 0.00,60.00,Monday
8,-1.5103272887722317
11,98655999.96843812
123,26420831.8225352
2,1, 1, 1, 0, 4, 0.00,60.00,Monday
12,98655999.96843812
48,22332951.10826934
86,23482715.132402749
124,26420831.8225352
160,26420831.8225352
258,186116.32776602769
285,0.0
309,0.0
408,0.0
715,0.0
761,52654217.4
863,0.0
889,0.0
915,0.0
941,0.0
1008,0.0
2,1, 1, 1, 0, 5, 0.00,60.00,Monday
8,-1.665952381653312
11,257092729.65101839
123,727100167.9713754
2,1, 1, 1, 0, 5, 0.00,60.00,Monday
12,257092729.65101839
48,22332951.10826934
86,58706787.83100687
124,727100167.9713754
160,66052079.556338008
258,372535.4303721095
285,0.0
309,0.0
408,0.0
715,91682824.3924646
761,52654217.4
863,31343413.488905454
889,0.0
915,0.0
941,661048088.4150374
1008,0.0
2,1, 1, 1, 0, 6, 0.00,60.00,Monday
8,-1.3944780310032846
11,223700360.73477874
123,158524990.93521119
2,1, 1, 1, 0, 6, 0.00,60.00,Monday
12,223700360.73477874
48,29777268.144359128
86,140896290.7944165
124,158524990.93521119
160,158524990.93521119
258,372584.3960031632
285,0.0
309,0.0
408,0.0
715,0.0
761,52654217.4
863,0.0
889,0.0
915,0.0
941,0.0
1008,0.0
2,1, 1, 1, 0, 7, 0.00,60.00,Monday
8,-1.1805889590406258
11,269520938.29095366
123,531714094.51271036
2,1, 1, 1, 0, 7, 0.00,60.00,Monday
12,269520938.29095366
48,59554536.28871825
86,152637648.36061786
124,531714094.51271036
160,171735406.8464788
258,372525.695603078
285,0.30625110823663417
309,0.30625110823663417
408,359978687.6662315
715,0.0
761,56956227.94392012
863,0.0
889,0.0
915,0.0
941,0.0
1008,0.002094304434218156
2,1, 1, 1, 0, 8, 0.00,60.00,Monday
8,-1.3944780310032846
11,484365430.8403251
123,956583557.4407444
2,1, 1, 1, 0, 8, 0.00,60.00,Monday
12,484365430.8403251
48,59554536.28871825
86,176120363.4930206
124,956583557.4407444
160,198156238.66901399
258,68708065.23063065
285,1.2250044329465367
309,1.2250044329465367
408,446057148.7386368
715,91682824.3924646
761,56956227.94392012
863,31343413.48890545
889,0.0
915,0.0
941,312370170.03309378
1008,0.0026655314781522116
2,1, 1, 1, 0, 9, 0.00,60.00,Monday
8,-1.665952381653312
11,489384004.7890397
123,1040352658.1080005
2,1, 1, 1, 0, 9, 0.00,60.00,Monday
12,489384004.7890397
48,89331804.43307737
86,211344436.1916247
124,1040352658.1080005
160,237787486.40281678
258,65681526.280365508
285,1.1229207302009923
309,1.1229207302009923
408,446057148.7386368
715,91682824.3924646
761,0.0
863,31343413.488905454
889,0.0
915,0.0
941,356508022.9665471
1008,0.002602061806603984
2,1, 1, 1, 0,10, 0.00,60.00,Monday
8,-1.1802458087361237
11,510716523.48773178
123,979730670.7055774
2,1, 1, 1, 0,10, 0.00,60.00,Monday
12,510716523.48773178
48,89331804.43307737
86,246568508.89022885
124,979730670.7055774
160,277418734.13661959
258,51789972.28058039
285,0.9187533247099027
309,0.9187533247099027
408,432176872.91700348
715,91682824.3924646
761,0.0
863,31343413.488905454
889,0.0
915,0.0
941,270135063.6519545
1008,0.0024751224635075274
2,1, 1, 1, 0,11, 0.00,60.00,Monday
8,-0.9849379844004382
11,608477862.1815974
123,1004120646.7450825
2,1, 1, 1, 0,11, 0.00,60.00,Monday
12,608477862.1815974
48,133997706.64961607
86,305275296.7212357
124,1004120646.7450825
160,343470813.6929576
258,46178620.92696401
285,0.8166696219643579
309,0.8166696219643579
408,403348129.06293126
715,91682824.3924646
761,0.0
863,31343413.488905454
889,0.0
915,0.0
941,257301703.98919366
1008,0.0024116527919592989
2,1, 1, 1, 0,12, 0.00,60.00,Monday
8,-0.818433687998716
11,649367014.4720471
123,929754985.5125616
2,1, 1, 1, 0,12, 0.00,60.00,Monday
12,649367014.4720471
48,133997706.64961607
86,340499369.4198398
124,929754985.5125616
160,383102061.4267604
258,51843700.518746089
285,0.9187533247099027
309,0.9187533247099027
408,432173782.3813175
715,91682824.3924646
761,0.0
863,31343413.488905454
889,0.0
915,0.0
941,114479141.70448372
1008,0.0024751224635075274
2,1, 1, 1, 0,13, 0.00,60.00,Monday
8,-0.598194072481827
11,620125275.9284184
123,760023332.3437097
2,1, 1, 1, 0,13, 0.00,60.00,Monday
12,620125275.9284184
48,133997706.64961607
86,317016654.2874371
124,760023332.3437097
160,356681229.6042252
258,46084677.10758364
285,0.8166696219643579
309,0.8166696219643579
408,403342102.7394844
715,91682824.3924646
761,0.0
863,31343413.488905454
889,0.0
915,0.0
941,0.0
1008,0.0024116527919592989
2,1, 1, 1, 0,14, 0.00,60.00,Monday
8,-0.2717280594017997
11,590993185.2303207
123,763109349.1964278
2,1, 1, 1, 0,14, 0.00,60.00,Monday
12,590993185.2303207
48,133997706.64961607
86,293533939.1550343
124,763109349.1964278
160,330260397.78169
258,40435301.54195207
285,0.7145859192188131
309,0.7145859192188131
408,403050416.52997127
715,91682824.3924646
761,0.0
863,31343413.488905454
889,0.0
915,0.0
941,29798534.8847666
1008,0.0023481831204110708
2,1, 1, 1, 0,15, 0.00,60.00,Monday
8,-0.04571975547003023
11,561823094.1719267
123,862495292.2025263
2,1, 1, 1, 0,15, 0.00,60.00,Monday
12,561823094.1719267
48,133997706.64961607
86,270051224.02263167
124,862495292.2025263
160,303839565.9591548
258,34747925.61602434
285,0.6125022164732684
309,0.6125022164732684
408,400029248.3296133
715,91682824.3924646
761,0.0
863,31343413.488905454
889,0.0
915,0.0
941,158626477.91375829
1008,0.002284713448862842
2,1, 1, 1, 0,16, 0.00,60.00,Monday
8,-0.04535544602759805
11,561812816.5299516
123,935772792.9358119
2,1, 1, 1, 0,16, 0.00,60.00,Monday
12,561812816.5299516
48,133997706.64961607
86,270051224.02263167
124,935772792.9358119
160,303839565.9591548
258,34737647.97404915
285,0.6125022164732684
309,0.6125022164732684
408,385951890.06603619
715,91682824.3924646
761,0.0
863,31343413.488905454
889,0.0
915,0.0
941,245981336.9106209
1008,0.002284713448862842
2,1, 1, 1, 0,17, 0.00,60.00,Monday
8,-0.04535544602759805
11,597051798.273891
123,956179125.1928322
2,1, 1, 1, 0,17, 0.00,60.00,Monday
12,597051798.273891
48,133997706.64961607
86,305275296.7212357
124,956179125.1928322
160,343470813.6929576
258,34752557.019384469
285,0.6125022164732684
309,0.6125022164732684
408,397544056.70252308
715,91682824.3924646
761,0.0
863,31343413.488905454
889,0.0
915,0.0
941,215164254.79735155
1008,0.002284713448862842
2,1, 1, 1, 0,18, 0.00,60.00,Monday
8,-0.4337098548147795
11,665590597.9380844
123,898297781.8505118
2,1, 1, 1, 0,18, 0.00,60.00,Monday
12,665590597.9380844
48,133997706.64961607
86,305275296.7212357
124,898297781.8505118
160,343470813.6929576
258,46335128.73953087
285,0.8166696219643579
309,0.8166696219643579
408,406575642.65118268
715,91682824.3924646
761,56956227.94392012
863,31343413.488905454
889,0.0
915,0.0
941,148251325.50637148
1008,0.0024116527919592989
2,1, 1, 1, 0,19, 0.00,60.00,Monday
8,-1.0213911744465183
11,660213285.2837638
123,843853730.711021
2,1, 1, 1, 0,19, 0.00,60.00,Monday
12,660213285.2837638
48,133997706.64961607
86,281792581.588833
124,843853730.711021
160,317049981.87042239
258,64440531.217422548
285,1.1229207302009923
309,1.1229207302009923
408,446057148.7386368
715,91682824.3924646
761,56956227.94392012
863,31343413.488905454
889,0.0
915,0.0
941,80746600.10196179
1008,0.002602061806603984
2,1, 1, 1, 0,20, 0.00,60.00,Monday
8,-1.1809288569695527
11,641122058.0424304
123,828960099.9349145
2,1, 1, 1, 0,20, 0.00,60.00,Monday
12,641122058.0424304
48,133997706.64961607
86,258309866.4564302
124,828960099.9349145
160,290629150.0478872
258,68832019.10842848
285,1.2250044329465369
309,1.2250044329465369
408,446057148.7386368
715,91682824.3924646
761,56956227.94392012
863,31343413.488905454
889,0.0
915,0.0
941,92273801.1483904
1008,0.002665531478152212
2,1, 1, 1, 0,21, 0.00,60.00,Monday
8,-1.5108130242800387
11,606547223.2850833
123,833925394.5160991
2,1, 1, 1, 0,21, 0.00,60.00,Monday
12,606547223.2850833
48,133997706.64961607
86,234827151.32402749
124,833925394.5160991
160,264208318.22535203
258,57739899.48361111
285,1.0208370274554473
309,1.0208370274554473
408,446057148.7386368
715,91682824.3924646
761,56956227.94392012
863,31343413.488905454
889,0.0
915,0.0
941,123659927.55211029
1008,0.0025385921350557559
2,1, 1, 1, 0,22, 0.00,60.00,Monday
8,-1.6662902470607773
11,588004773.2338168
123,936584204.3757298
2,1, 1, 1, 0,22, 0.00,60.00,Monday
12,588004773.2338168
48,133997706.64961607
86,211344436.1916247
124,936584204.3757298
160,237787486.40281678
258,62680164.56468377
285,1.1229207302009923
309,1.1229207302009923
408,446057148.7386368
715,91682824.3924646
761,56956227.94392012
863,31343413.488905454
889,0.0
915,0.0
941,252739569.23427636
1008,0.002602061806603984
2,1, 1, 1, 0,23, 0.00,60.00,Monday
8,-1.874803504688023
11,411573810.3987473
123,964604655.9048731
2,1, 1, 1, 0,23, 0.00,60.00,Monday
12,411573810.3987473
48,74443170.36089781
86,105672218.09581235
124,964604655.9048731
160,118893743.20140839
258,51475956.114271897
285,0.9187533247099027
309,0.9187533247099027
408,418302707.70245829
715,91682824.3924646
761,56956227.94392012
863,31343413.488905454
889,0.0
915,0.0
941,427408205.0010065
1008,0.0024751224635075274
2,1, 1, 1, 0,24, 0.00,60.00,Monday
8,-1.665952381653312
11,288940522.1209299
123,976476440.9853419
2,1, 1, 1, 0,24, 0.00,60.00,Monday
12,288940522.1209299
48,44665902.21653868
86,35224072.69860412
124,976476440.9853419
160,39631247.733802799
258,29068081.37827573
285,0.5104185137277236
309,0.5104185137277236
408,384203012.9926766
715,91682824.3924646
761,56956227.94392012
863,31343413.488905454
889,0.0
915,0.0
941,552642180.2588625
1008,0.002221243777314614
3,1, 1, 1, 0,Monday
545,37.75948319757559,26.235400169477459, 5,60,50.531989717138809, 7,59
2,2, 1, 2, 0, 1, 0.00,60.00,Tuesday
8,-2.450886200756528
11,133453597.25304933
123,406252824.72677817
2,2, 1, 2, 0, 1, 0.00,60.00,Tuesday
12,133453597.25304933
48,22332951.10826934
86,35224072.69860412
124,406252824.72677817
160,39631247.733802799
258,23242356.044018113
285,0.40833481098217896
309,0.40833481098217896
408,366621576.99297538
715,0.0
761,52654217.4
863,0.0
889,0.0
915,0.0
941,0.0
1008,0.0021577688069917215
2,2, 1, 2, 0, 2, 0.00,60.00,Tuesday
8,-2.248902511226617
11,98842370.54725862
123,37965012.02696764
2,2, 1, 2, 0, 2, 0.00,60.00,Tuesday
12,98842370.54725862
48,22332951.10826934
86,23482715.132402749
124,37965012.02696764
160,26420831.8225352
258,372486.90658653437
285,0.0
309,0.0
408,11544180.204432439
715,0.0
761,52654217.4
863,0.0
889,0.0
915,0.0
941,0.0
1008,0.0
2,2, 1, 2, 0, 3, 0.00,60.00,Tuesday
8,-2.248902511226617
11,110583800.61555195
123,39631247.733802799
2,2, 1, 2, 0, 3, 0.00,60.00,Tuesday
12,110583800.61555195
48,22332951.10826934
86,35224072.69860412
124,39631247.733802799
160,39631247.733802799
258,372559.40867848627
285,0.0
309,0.0
408,0.0
715,0.0
761,52654217.4
863,0.0
889,0.0
915,0.0
941,0.0
1008,0.0
2,2, 1, 2, 0, 4, 0.00,60.00,Tuesday
8,-1.665952381653312
11,98842199.41280702
123,26420831.8225352
2,2, 1, 2, 0, 4, 0.00,60.00,Tuesday
12,98842199.41280702
48,22332951.10826934
86,23482715.132402749
124,26420831.8225352
160,26420831.8225352
258,372315.77213493079
285,0.0
309,0.0
408,0.0
715,0.0
761,52654217.4
863,0.0
889,0.0
915,0.0
941,0.0
1008,0.0
2,2, 1, 2, 0, 5, 0.00,60.00,Tuesday
8,-2.8216230582487005
11,256906415.1168293
123,726633971.672372
2,2, 1, 2, 0, 5, 0.00,60.00,Tuesday
12,256906415.1168293
48,22332951.10826934
86,58706787.83100687
124,726633971.672372
160,66052079.556338008
258,186220.8961830472
285,0.0
309,0.0
408,0.0
715,91682824.3924646
761,52654217.4
863,31343413.488905454
889,0.0
915,0.0
941,660581892.116034
1008,0.0
2,2, 1, 2, 0, 6, 0.00,60.00,Tuesday
8,-1.665952381653312
11,223700307.61986885
123,158524990.93521119
2,2, 1, 2, 0, 6, 0.00,60.00,Tuesday
12,223700307.61986885
48,29777268.144359128
86,140896290.7944165
124,158524990.93521119
160,158524990.93521119
258,372531.2810932711
285,0.0
309,0.0
408,0.0
715,0.0
761,52654217.4
863,0.0
889,0.0
915,0.0
941,0.0
1008,0.0
2,2, 1, 2, 0, 7, 0.00,60.00,Tuesday
8,-1.665952381653312
11,269520969.8340395
123,531784649.46586039
2,2, 1, 2, 0, 7, 0.00,60.00,Tuesday
12,269520969.8340395
48,59554536.28871825
86,152637648.36061786
124,531784649.46586039
160,171735406.8464788
258,372557.2386889601
285,0.30625110823663417
309,0.30625110823663417
408,360049242.61938157
715,0.0
761,56956227.94392012
863,0.0
889,0.0
915,0.0
941,0.0
1008,0.0020942986697684289
2,2, 1, 2, 0, 8, 0.00,60.00,Tuesday
8,-1.66561355779768
11,484412414.7521013
123,996886754.733197
2,2, 1, 2, 0, 8, 0.00,60.00,Tuesday
12,484412414.7521013
48,59554536.28871825
86,176120363.4930206
124,996886754.733197
160,198156238.66901399
258,68755049.14240682
285,1.2250044329465367
309,1.2250044329465367
408,446057148.7386368
715,91682824.3924646
761,56956227.94392012
863,31343413.48890545
889,0.0
915,0.0
941,352673367.3255463
1008,0.0026655241413570936
2,2, 1, 2, 0, 9, 0.00,60.00,Tuesday
8,-1.66561355779768
11,489589333.0406421
123,1045388860.6538222
2,2, 1, 2, 0, 9, 0.00,60.00,Tuesday
12,489589333.0406421
48,89331804.43307737
86,211344436.1916247
124,1045388860.6538222
160,237787486.40281678
258,65886854.531967919
285,1.1229207302009923
309,1.1229207302009923
408,446057148.7386368
715,91682824.3924646
761,0.0
863,31343413.488905454
889,0.0
915,0.0
941,361544225.51236876
1008,0.0026020546445072176
2,2, 1, 2, 0,10, 0.00,60.00,Tuesday
8,-1.1802458087361237
11,510737893.5703845
123,993748722.384982
2,2, 1, 2, 0,10, 0.00,60.00,Tuesday
12,510737893.5703845
48,89331804.43307737
86,246568508.89022885
124,993748722.384982
160,277418734.13661959
258,51811342.36323317
285,0.9187533247099027
309,0.9187533247099027
408,432195072.2483459
715,91682824.3924646
761,0.0
863,31343413.488905454
889,0.0
915,0.0
941,284134916.00001659
1008,0.0024751156508074796
2,2, 1, 2, 0,11, 0.00,60.00,Tuesday
8,-1.1799047350000767
11,608412510.6040552
123,1029905193.1554699
2,2, 1, 2, 0,11, 0.00,60.00,Tuesday
12,608412510.6040552
48,133997706.64961607
86,305275296.7212357
124,1029905193.1554699
160,343470813.6929576
258,46113269.349421788
285,0.8166696219643579
309,0.8166696219643579
408,403403230.08983597
715,91682824.3924646
761,0.0
863,31343413.488905454
889,0.0
915,0.0
941,283031149.3726764
1008,0.0024116461539576115
2,2, 1, 2, 0,12, 0.00,60.00,Tuesday
8,-0.817959937909318
11,649654301.6369515
123,926873218.9189359
2,2, 1, 2, 0,12, 0.00,60.00,Tuesday
12,649654301.6369515
48,133997706.64961607
86,340499369.4198398
124,926873218.9189359
160,383102061.4267604
258,52130987.68365036
285,0.9187533247099027
309,0.9187533247099027
408,432190680.8909452
715,91682824.3924646
761,0.0
863,31343413.488905454
889,0.0
915,0.0
941,111580476.60123022
1008,0.0024751156508074796
2,2, 1, 2, 0,13, 0.00,60.00,Tuesday
8,-0.9843616670581066
11,620122166.1814778
123,774296597.9207783
2,2, 1, 2, 0,13, 0.00,60.00,Tuesday
12,620122166.1814778
48,133997706.64961607
86,317016654.2874371
124,774296597.9207783
160,356681229.6042252
258,46081567.36064295
285,0.8166696219643579
309,0.8166696219643579
408,417615368.31655308
715,91682824.3924646
761,0.0
863,31343413.488905454
889,0.0
915,0.0
941,0.0
1008,0.0024116461539576115
2,2, 1, 2, 0,14, 0.00,60.00,Tuesday
8,-0.817959937909318
11,591041855.8608142
123,788945744.2286635
2,2, 1, 2, 0,14, 0.00,60.00,Tuesday
12,591041855.8608142
48,133997706.64961607
86,293533939.1550343
124,788945744.2286635
160,330260397.78169
258,40483972.17244558
285,0.7145859192188131
309,0.7145859192188131
408,402257818.06004837
715,91682824.3924646
761,0.0
863,31343413.488905454
889,0.0
915,0.0
941,56427528.38692514
1008,0.0023481766571077429
2,2, 1, 2, 0,15, 0.00,60.00,Tuesday
8,-0.5975033634303576
11,561818975.4597973
123,873848296.8626373
2,2, 1, 2, 0,15, 0.00,60.00,Tuesday
12,561818975.4597973
48,133997706.64961607
86,270051224.02263167
124,873848296.8626373
160,303839565.9591548
258,34743806.90389482
285,0.6125022164732684
309,0.6125022164732684
408,386041335.25522747
715,91682824.3924646
761,0.0
863,31343413.488905454
889,0.0
915,0.0
941,183967395.64825518
1008,0.002284707160257874
2,2, 1, 2, 0,16, 0.00,60.00,Tuesday
8,-0.5971565962370674
11,561677505.4728199
123,962349074.4042263
2,2, 1, 2, 0,16, 0.00,60.00,Tuesday
12,561677505.4728199
48,133997706.64961607
86,270051224.02263167
124,962349074.4042263
160,303839565.9591548
258,34602336.91691743
285,0.6125022164732684
309,0.6125022164732684
408,388470683.811131
715,91682824.3924646
761,0.0
863,31343413.488905454
889,0.0
915,0.0
941,270038824.63394048
1008,0.002284707160257874
2,2, 1, 2, 0,17, 0.00,60.00,Tuesday
8,-0.5971565962370674
11,597083882.8862349
123,982388626.4083476
2,2, 1, 2, 0,17, 0.00,60.00,Tuesday
12,597083882.8862349
48,133997706.64961607
86,305275296.7212357
124,982388626.4083476
160,343470813.6929576
258,34784641.63172828
285,0.6125022164732684
309,0.6125022164732684
408,398555847.8477188
715,91682824.3924646
761,0.0
863,31343413.488905454
889,0.0
915,0.0
941,240361964.86767126
1008,0.002284707160257874
2,2, 1, 2, 0,18, 0.00,60.00,Tuesday
8,-1.1795657539051999
11,665303025.5618688
123,933359379.5461274
2,2, 1, 2, 0,18, 0.00,60.00,Tuesday
12,665303025.5618688
48,133997706.64961607
86,305275296.7212357
124,933359379.5461274
160,343470813.6929576
258,46047556.3633153
285,0.8166696219643579
309,0.8166696219643579
408,417615782.8051225
715,91682824.3924646
761,56956227.94392012
863,31343413.488905454
889,0.0
915,0.0
941,172272783.04804746
1008,0.0024116461539576115
2,2, 1, 2, 0,19, 0.00,60.00,Tuesday
8,-1.020404023167408
11,658443374.5053754
123,838232623.3410868
2,2, 1, 2, 0,19, 0.00,60.00,Tuesday
12,658443374.5053754
48,133997706.64961607
86,281792581.588833
124,838232623.3410868
160,317049981.87042239
258,62670620.4390342
285,1.1229207302009923
309,1.1229207302009923
408,446057148.7386368
715,91682824.3924646
761,56956227.94392012
863,31343413.488905454
889,0.0
915,0.0
941,75125492.7320276
1008,0.0026020546445072176
2,2, 1, 2, 0,20, 0.00,60.00,Tuesday
8,-1.6649382965486524
11,641122058.0424304
123,846742752.0175585
2,2, 1, 2, 0,20, 0.00,60.00,Tuesday
12,641122058.0424304
48,133997706.64961607
86,258309866.4564302
124,846742752.0175585
160,290629150.0478872
258,68832019.10842848
285,1.2250044329465369
309,1.2250044329465369
408,446057148.7386368
715,91682824.3924646
761,56956227.94392012
863,31343413.488905454
889,0.0
915,0.0
941,110056453.23103437
1008,0.0026655241413570858
2,2, 1, 2, 0,21, 0.00,60.00,Tuesday
8,-2.0970481657497048
11,606551484.3984041
123,853253580.2471919
2,2, 1, 2, 0,21, 0.00,60.00,Tuesday
12,606551484.3984041
48,133997706.64961607
86,234827151.32402749
124,853253580.2471919
160,264208318.22535203
258,57744160.59693189
285,1.0208370274554473
309,1.0208370274554473
408,446057148.7386368
715,91682824.3924646
761,56956227.94392012
863,31343413.488905454
889,0.0
915,0.0
941,142988113.28320308
1008,0.0025385851476573486
2,2, 1, 2, 0,22, 0.00,60.00,Tuesday
8,-2.448595400822192
11,588223802.6560341
123,960197726.8877483
2,2, 1, 2, 0,22, 0.00,60.00,Tuesday
12,588223802.6560341
48,133997706.64961607
86,211344436.1916247
124,960197726.8877483
160,237787486.40281678
258,62899193.98690114
285,1.1229207302009923
309,1.1229207302009923
408,446057148.7386368
715,91682824.3924646
761,56956227.94392012
863,31343413.488905454
889,0.0
915,0.0
941,276353091.74629476
1008,0.0026020546445072176
2,2, 1, 2, 0,23, 0.00,60.00,Tuesday
8,-3.0766921149082706
11,411528889.6003601
123,996908818.2385259
2,2, 1, 2, 0,23, 0.00,60.00,Tuesday
12,411528889.6003601
48,74443170.36089781
86,105672218.09581235
124,996908818.2385259
160,118893743.20140839
258,51431035.31588471
285,0.9187533247099027
309,0.9187533247099027
408,419179927.63315656
715,91682824.3924646
761,56956227.94392012
863,31343413.488905454
889,0.0
915,0.0
941,458835147.40396097
1008,0.0024751156508074796
2,2, 1, 2, 0,24, 0.00,60.00,Tuesday
8,-3.0766921149082706
11,288760987.9201287
123,1009472788.9864793
2,2, 1, 2, 0,24, 0.00,60.00,Tuesday
12,288760987.9201287
48,44665902.21653868
86,35224072.69860412
124,1009472788.9864793
160,39631247.733802799
258,28888547.17747455
285,0.5104185137277236
309,0.5104185137277236
408,383346494.76872828
715,91682824.3924646
761,56956227.94392012
863,31343413.488905454
889,0.0
915,0.0
941,586495046.4839482
1008,0.0022212376634080054
3,2, 1, 2, 0,Tuesday
545,37.20777298944867,21.501512860417834, 5,60,47.4519188213825, 7,60
2,3, 1, 3, 0, 1, 0.00,60.00,Wednesday
8,-3.8400849580777196
11,133539894.83097525
123,410226661.34305658
2,3, 1, 3, 0, 1, 0.00,60.00,Wednesday
12,133539894.83097525
48,22332951.10826934
86,35224072.69860412
124,410226661.34305658
160,39631247.733802799
258,23328653.62194402
285,0.40833481098217896
309,0.40833481098217896
408,370595413.60925379
715,0.0
761,52654217.4
863,0.0
889,0.0
915,0.0
941,0.0
1008,0.002157762963883141
2,3, 1, 3, 0, 2, 0.00,60.00,Wednesday
8,-3.839424890680984
11,98760188.70804087
123,26420831.8225352
2,3, 1, 3, 0, 2, 0.00,60.00,Wednesday
12,98760188.70804087
48,22332951.10826934
86,23482715.132402749
124,26420831.8225352
160,26420831.8225352
258,290305.0673687784
285,0.0
309,0.0
408,0.0
715,0.0
761,52654217.4
863,0.0
889,0.0
915,0.0
941,0.0
1008,0.0
2,3, 1, 3, 0, 3, 0.00,60.00,Wednesday
8,-4.1712791770681749
11,110583705.75156152
123,52868477.0800674
2,3, 1, 3, 0, 3, 0.00,60.00,Wednesday
12,110583705.75156152
48,22332951.10826934
86,35224072.69860412
124,52868477.0800674
160,39631247.733802799
258,372464.54468805858
285,0.0
309,0.0
408,13237229.346264609
715,0.0
761,52654217.4
863,0.0
889,0.0
915,0.0
941,0.0
1008,0.0
2,3, 1, 3, 0, 4, 0.00,60.00,Wednesday
8,-4.310274787688259
11,98842397.80111727
123,26420831.8225352
2,3, 1, 3, 0, 4, 0.00,60.00,Wednesday
12,98842397.80111727
48,22332951.10826934
86,23482715.132402749
124,26420831.8225352
160,26420831.8225352
258,372514.1604451847
285,0.0
309,0.0
408,0.0
715,0.0
761,52654217.4
863,0.0
889,0.0
915,0.0
941,0.0
1008,0.0
2,3, 1, 3, 0, 5, 0.00,60.00,Wednesday
8,-5.011897641093955
11,257092640.9209347
123,849075214.3882986
2,3, 1, 3, 0, 5, 0.00,60.00,Wednesday
12,257092640.9209347
48,22332951.10826934
86,58706787.83100687
124,849075214.3882986
160,66052079.556338008
258,372446.7002884451
285,0.0
309,0.0
408,0.0
715,91682824.39246458
761,52654217.4
863,31343413.488905454
889,0.0
915,0.0
941,783023134.8319607
1008,0.0
2,3, 1, 3, 0, 6, 0.00,60.00,Wednesday
8,-5.348283325588144
11,223700272.58741177
123,158524990.93521119
2,3, 1, 3, 0, 6, 0.00,60.00,Wednesday
12,223700272.58741177
48,29777268.144359128
86,140896290.7944165
124,158524990.93521119
160,158524990.93521119
258,372496.24863619756
285,0.0
309,0.0
408,0.0
715,0.0
761,52654217.4
863,0.0
889,0.0
915,0.0
941,0.0
1008,0.0
2,3, 1, 3, 0, 7, 0.00,60.00,Wednesday
8,-5.654568022820762
11,269334664.65866699
123,527884299.4174924
2,3, 1, 3, 0, 7, 0.00,60.00,Wednesday
12,269334664.65866699
48,59554536.28871825
86,152637648.36061786
124,527884299.4174924
160,171735406.8464788
258,186252.06331647657
285,0.30625110823663417
309,0.30625110823663417
408,356148892.57101359
715,0.0
761,56956227.94392012
863,0.0
889,0.0
915,0.0
941,0.0
1008,0.0020942930098036057
2,3, 1, 3, 0, 8, 0.00,60.00,Wednesday
8,-5.4788702207489179
11,484479865.65397247
123,1128457359.5705729
2,3, 1, 3, 0, 8, 0.00,60.00,Wednesday
12,484479865.65397247
48,59554536.28871825
86,176120363.4930206
124,1128457359.5705729
160,198156238.66901399
258,68822500.04427794
285,1.2250044329465367
309,1.2250044329465367
408,446057148.7386368
715,91682824.3924646
761,56956227.94392012
863,31343413.48890545
889,0.0
915,0.0
941,484243972.162922
1008,0.002665516937623363
2,3, 1, 3, 0, 9, 0.00,60.00,Wednesday
8,-5.78833505928885
11,489991146.1814682
123,1174728800.2201195
2,3, 1, 3, 0, 9, 0.00,60.00,Wednesday
12,489991146.1814682
48,89331804.43307737
86,211344436.1916247
124,1174728800.2201195
160,237787486.40281678
258,66288667.672794047
285,1.1229207302009923
309,1.1229207302009923
408,446057148.7386368
715,91682824.3924646
761,0.0
863,31343413.488905454
889,0.0
915,0.0
941,490884165.07866606
1008,0.0026020476123034869
2,3, 1, 3, 0,10, 0.00,60.00,Wednesday
8,-6.360779300234708
11,510775663.66218367
123,1176938748.490328
2,3, 1, 3, 0,10, 0.00,60.00,Wednesday
12,510775663.66218367
48,89331804.43307737
86,246568508.89022885
124,1176938748.490328
160,277418734.13661959
258,51849112.45503233
285,0.9187533247099027
309,0.9187533247099027
408,432212837.3894168
715,91682824.3924646
761,0.0
863,31343413.488905454
889,0.0
915,0.0
941,467307176.96429166
1008,0.002475108961663749
2,3, 1, 3, 0,11, 0.00,60.00,Wednesday
8,-6.209417884049362
11,608369244.8996984
123,1200834644.8432463
2,3, 1, 3, 0,11, 0.00,60.00,Wednesday
12,608369244.8996984
48,133997706.64961607
86,305275296.7212357
124,1200834644.8432463
160,343470813.6929576
258,46070003.64506496
285,0.8166696219643579
309,0.8166696219643579
408,411867444.7094742
715,91682824.3924646
761,0.0
863,31343413.488905454
889,0.0
915,0.0
941,445496386.44081458
1008,0.00241163963634388
2,3, 1, 3, 0,12, 0.00,60.00,Wednesday
8,-6.0824279633693039
11,649697640.604704
123,1100357000.6741439
2,3, 1, 3, 0,12, 0.00,60.00,Wednesday
12,649697640.604704
48,133997706.64961607
86,340499369.4198398
124,1100357000.6741439
160,383102061.4267604
258,52174326.651403028
285,0.9187533247099027
309,0.9187533247099027
408,424018348.87283346
715,91682824.3924646
761,0.0
863,31343413.488905454
889,0.0
915,0.0
941,293236590.3745499
1008,0.002475108961663749
2,3, 1, 3, 0,13, 0.00,60.00,Wednesday
8,-6.550193446183367
11,620182875.330825
123,964654434.8119252
2,3, 1, 3, 0,13, 0.00,60.00,Wednesday
12,620182875.330825
48,133997706.64961607
86,317016654.2874371
124,964654434.8119252
160,356681229.6042252
258,46142276.50999014
285,0.8166696219643579
309,0.8166696219643579
408,417649423.0165513
715,91682824.3924646
761,0.0
863,31343413.488905454
889,0.0
915,0.0
941,190323782.19114865
1008,0.00241163963634388
2,3, 1, 3, 0,14, 0.00,60.00,Wednesday
8,-6.889542842120662
11,591017915.6389818
123,992789212.3721658
2,3, 1, 3, 0,14, 0.00,60.00,Wednesday
12,591017915.6389818
48,133997706.64961607
86,293533939.1550343
124,992789212.3721658
160,330260397.78169
258,40460031.95061321
285,0.7145859192188131
309,0.7145859192188131
408,402309454.3207406
715,91682824.3924646
761,0.0
863,31343413.488905454
889,0.0
915,0.0
941,260219360.26973526
1008,0.0023481703110240115
2,3, 1, 3, 0,15, 0.00,60.00,Wednesday
8,-7.3508378156906419
11,561749519.3430221
123,1087912024.46222
2,3, 1, 3, 0,15, 0.00,60.00,Wednesday
12,561749519.3430221
48,133997706.64961607
86,270051224.02263167
124,1087912024.46222
160,303839565.9591548
258,34674350.78711978
285,0.6125022164732684
309,0.6125022164732684
408,386109902.26084646
715,91682824.3924646
761,0.0
863,31343413.488905454
889,0.0
915,0.0
941,397962556.24221876
1008,0.002284700985704142
2,3, 1, 3, 0,16, 0.00,60.00,Wednesday
8,-7.469274250048447
11,561729945.0510292
123,1195933399.709531
2,3, 1, 3, 0,16, 0.00,60.00,Wednesday
12,561729945.0510292
48,133997706.64961607
86,270051224.02263167
124,1195933399.709531
160,303839565.9591548
258,34654776.49512688
285,0.6125022164732684
309,0.6125022164732684
408,401074437.4272287
715,91682824.3924646
761,0.0
863,31343413.488905454
889,0.0
915,0.0
941,491019396.32314756
1008,0.002284700985704142
2,3, 1, 3, 0,17, 0.00,60.00,Wednesday
8,-7.904415557688695
11,597153469.9824146
123,1209243394.1482874
2,3, 1, 3, 0,17, 0.00,60.00,Wednesday
12,597153469.9824146
48,133997706.64961607
86,305275296.7212357
124,1209243394.1482874
160,343470813.6929576
258,34854228.72790817
285,0.6125022164732684
309,0.6125022164732684
408,386119740.21081319
715,91682824.3924646
761,0.0