Program Version,EnergyPlus, Version 9.1.0-08d2e308bb, YMD=2019.12.31 12:46
1,5,Environment Title[],Latitude[deg],Longitude[deg],Time Zone[],Elevation[m]
2,8,Day of Simulation[],Month[],Day of Month[],DST Indicator[1=yes 0=no],Hour[],StartMinute[],EndMinute[],DayType
3,5,Cumulative Day of Simulation[],Month[],Day of Month[],DST Indicator[1=yes 0=no],DayType  ! When Daily Report Variables Requested
4,2,Cumulative Days of Simulation[],Month[]  ! When Monthly Report Variables Requested
5,1,Cumulative Days of Simulation[] ! When Run Period Report Variables Requested
6,1,Calendar Year of Simulation[] ! When Annual Report Variables Requested
7,9,Environment,Site Outdoor Air Drybulb Temperature [C] !Monthly [Value,Min,Day,Hour,Minute,Max,Day,Hour,Minute]
8,1,Environment,Site Outdoor Air Wetbulb Temperature [C] !TimeStep
545,1,BUILDING STORY 1 THERMALZONE,Zone Air Temperature [C] !Hourly
546,7,BUILDING STORY 1 THERMALZONE,Zone Air Relative Humidity [%] !Daily [Value,Min,Hour,Minute,Max,Hour,Minute]
11,1,Electricity:Facility [J] !TimeStep
123,1,Gas:Facility [J] !TimeStep
End of Data Dictionary
1,BUFFALO NIAGARA INTL AP ANN CLG .4% CONDNS DB=>MWB,  42.93, -78.73,  -5.00, 215.00
2,1, 7,21, 0, 1, 0.00,60.00,SummerDesignDay
8,19.36840579326866
11,631837563.9959277
123,681747117.3572586
2,1, 7,21, 0, 1, 0.00,60.00,SummerDesignDay
545,28.940957622436316
2,1, 7,21, 0, 2, 0.00,60.00,SummerDesignDay
8,19.25226217922265
11,604958468.0144317
123,394604970.64313146
2,1, 7,21, 0, 2, 0.00,60.00,SummerDesignDay
545,29.207843405006366
2,1, 7,21, 0, 3, 0.00,60.00,SummerDesignDay
8,19.164819553782637
11,604958508.6491304
123,383102061.4267604
2,1, 7,21, 0, 3, 0.00,60.00,SummerDesignDay
545,28.99889344441272
2,1, 7,21, 0, 4, 0.00,60.00,SummerDesignDay
8,19.0770792448193
11,604958548.9409787
123,383102061.4267604
2,1, 7,21, 0, 4, 0.00,60.00,SummerDesignDay
545,28.88343681017038
2,1, 7,21, 0, 5, 0.00,60.00,SummerDesignDay
8,19.018427637799467
11,604958588.8936614
123,383102061.4267604
2,1, 7,21, 0, 5, 0.00,60.00,SummerDesignDay
545,28.79605218397454
2,1, 7,21, 0, 6, 0.00,60.00,SummerDesignDay
8,19.0770792448193
11,676148722.0867125
123,383102061.4267604
2,1, 7,21, 0, 6, 0.00,60.00,SummerDesignDay
545,26.509293730755766
2,1, 7,21, 0, 7, 0.00,60.00,SummerDesignDay
8,19.281346189070228
11,812009714.1228302
123,684662973.3437603
2,1, 7,21, 0, 7, 0.00,60.00,SummerDesignDay
545,24.285379938126125
2,1, 7,21, 0, 8, 0.00,60.00,SummerDesignDay
8,19.770887505670989
11,918456647.2489909
123,761231395.4926289
2,1, 7,21, 0, 8, 0.00,60.00,SummerDesignDay
545,24.076357032748569
2,1, 7,21, 0, 9, 0.00,60.00,SummerDesignDay
8,20.30732185289352
11,946271998.4344543
123,759214891.1296108
2,1, 7,21, 0, 9, 0.00,60.00,SummerDesignDay
545,24.00210037612327
2,1, 7,21, 0,10, 0.00,60.00,SummerDesignDay
8,20.778037156782458
11,962501066.8100246
123,737407180.6626043
2,1, 7,21, 0,10, 0.00,60.00,SummerDesignDay
545,23.98080662348131
2,1, 7,21, 0,11, 0.00,60.00,SummerDesignDay
8,21.186337137460165
11,978476382.5987741
123,734631831.1324902
2,1, 7,21, 0,11, 0.00,60.00,SummerDesignDay
545,23.969496452099738
2,1, 7,21, 0,12, 0.00,60.00,SummerDesignDay
8,21.45495938709981
11,996547931.8594836
123,737433980.9992515
2,1, 7,21, 0,12, 0.00,60.00,SummerDesignDay
545,23.963573686161234
2,1, 7,21, 0,13, 0.00,60.00,SummerDesignDay
8,21.667839996742449
11,1004156427.0101997
123,734659901.020253
2,1, 7,21, 0,13, 0.00,60.00,SummerDesignDay
545,23.960266662234678
2,1, 7,21, 0,14, 0.00,60.00,SummerDesignDay
8,21.799990419629109
11,1003138596.4837719
123,713298815.4766694
2,1, 7,21, 0,14, 0.00,60.00,SummerDesignDay
545,24.128451559167098
2,1, 7,21, 0,15, 0.00,60.00,SummerDesignDay
8,21.799990419629109
11,997350819.4281635
123,709643175.1372242
2,1, 7,21, 0,15, 0.00,60.00,SummerDesignDay
545,24.246885277694493
2,1, 7,21, 0,16, 0.00,60.00,SummerDesignDay
8,21.641326796728476
11,992315338.9460282
123,709624198.231326
2,1, 7,21, 0,16, 0.00,60.00,SummerDesignDay
545,24.215465133383725
2,1, 7,21, 0,17, 0.00,60.00,SummerDesignDay
8,21.42822317147698
11,985091828.7869386
123,710241533.4770216
2,1, 7,21, 0,17, 0.00,60.00,SummerDesignDay
545,24.09909890929165
2,1, 7,21, 0,18, 0.00,60.00,SummerDesignDay
8,21.15931786227956
11,979785520.7526018
123,733994389.8795605
2,1, 7,21, 0,18, 0.00,60.00,SummerDesignDay
545,24.034622776574858
2,1, 7,21, 0,19, 0.00,60.00,SummerDesignDay
8,20.750583661392644
11,965761520.272206
123,759221036.3907961
2,1, 7,21, 0,19, 0.00,60.00,SummerDesignDay
545,23.999773601500786
2,1, 7,21, 0,20, 0.00,60.00,SummerDesignDay
8,20.446661088459409
11,938150314.1809594
123,761216884.522353
2,1, 7,21, 0,20, 0.00,60.00,SummerDesignDay
545,23.981489218167025
2,1, 7,21, 0,21, 0.00,60.00,SummerDesignDay
8,20.19530361990708
11,962836756.985544
123,757119141.2969923
2,1, 7,21, 0,21, 0.00,60.00,SummerDesignDay
545,23.97176629466308
2,1, 7,21, 0,22, 0.00,60.00,SummerDesignDay
8,19.941485234887624
11,951505561.0609338
123,759258844.5213502
2,1, 7,21, 0,22, 0.00,60.00,SummerDesignDay
545,23.966295458300608
2,1, 7,21, 0,23, 0.00,60.00,SummerDesignDay
8,19.7423381019073
11,926025754.4726156
123,737460898.3638717
2,1, 7,21, 0,23, 0.00,60.00,SummerDesignDay
545,23.963263817006479
2,1, 7,21, 0,24, 0.00,60.00,SummerDesignDay
8,19.54165603023991
11,889731108.8195834
123,701249749.3471229
2,1, 7,21, 0,24, 0.00,60.00,SummerDesignDay
545,23.96164265014363
3,1, 7,21, 0,SummerDesignDay
546,62.71690923040722,57.88868249665495, 1,20,67.17816906263407, 6,30
4,1, 7
7,25.312875000000003,21.0,21, 5,60,30.3,21,14,60
1,BUFFALO NIAGARA INTL AP ANN CLG .4% CONDNS WB=>MDB,  42.93, -78.73,  -5.00, 215.00
2,1, 7,21, 0, 1, 0.00,60.00,SummerDesignDay
8,19.615996954992807
11,631340253.1631323
123,681747117.3572586
2,1, 7,21, 0, 1, 0.00,60.00,SummerDesignDay
545,27.55320734960666
2,1, 7,21, 0, 2, 0.00,60.00,SummerDesignDay
8,19.243988037109376
11,604958468.0173414
123,394604970.64313146
2,1, 7,21, 0, 2, 0.00,60.00,SummerDesignDay
545,27.72855586967842
2,1, 7,21, 0, 3, 0.00,60.00,SummerDesignDay
8,18.96499632356402
11,604958508.6520155
123,383102061.4267604
2,1, 7,21, 0, 3, 0.00,60.00,SummerDesignDay
545,27.494602799924427
2,1, 7,21, 0, 4, 0.00,60.00,SummerDesignDay
8,18.685989379882814
11,604958548.9438394
123,383102061.4267604
2,1, 7,21, 0, 4, 0.00,60.00,SummerDesignDay
545,27.35845608813382
2,1, 7,21, 0, 5, 0.00,60.00,SummerDesignDay
8,18.49999810986028
11,604958588.8964982
123,383102061.4267604
2,1, 7,21, 0, 5, 0.00,60.00,SummerDesignDay
545,27.262891571197839
2,1, 7,21, 0, 6, 0.00,60.00,SummerDesignDay
8,18.685989379882814
11,613171807.662458
123,383102061.4267604
2,1, 7,21, 0, 6, 0.00,60.00,SummerDesignDay
545,26.487697077237788
2,1, 7,21, 0, 7, 0.00,60.00,SummerDesignDay
8,19.336990356445314
11,764893482.1726495
123,684714117.3219211
2,1, 7,21, 0, 7, 0.00,60.00,SummerDesignDay
545,24.41635259298455
2,1, 7,21, 0, 8, 0.00,60.00,SummerDesignDay
8,20.917992548817627
11,915056591.3236795
123,761230902.7647064
2,1, 7,21, 0, 8, 0.00,60.00,SummerDesignDay
545,24.123719877010509
2,1, 7,21, 0, 9, 0.00,60.00,SummerDesignDay
8,22.420023807696297
11,963870804.3892782
123,759215116.0089676
2,1, 7,21, 0, 9, 0.00,60.00,SummerDesignDay
545,24.19223831802659
2,1, 7,21, 0,10, 0.00,60.00,SummerDesignDay
8,22.854695006230427
11,964423226.6756463
123,737407455.5366248
2,1, 7,21, 0,10, 0.00,60.00,SummerDesignDay
545,24.49001614563603
2,1, 7,21, 0,11, 0.00,60.00,SummerDesignDay
8,23.232104587122938
11,969807983.1189224
123,734632119.0589988
2,1, 7,21, 0,11, 0.00,60.00,SummerDesignDay
545,24.733804129667204
2,1, 7,21, 0,12, 0.00,60.00,SummerDesignDay
8,23.480593542408348
11,983260324.4469041
123,737434247.9579896
2,1, 7,21, 0,12, 0.00,60.00,SummerDesignDay
545,24.852981896291224
2,1, 7,21, 0,13, 0.00,60.00,SummerDesignDay
8,23.677626430315248
11,983869434.3770903
123,734660180.5937791
2,1, 7,21, 0,13, 0.00,60.00,SummerDesignDay
545,25.01190858866049
2,1, 7,21, 0,14, 0.00,60.00,SummerDesignDay
8,23.799986320868798
11,982196147.9115414
123,713299134.0917096
2,1, 7,21, 0,14, 0.00,60.00,SummerDesignDay
545,25.216141738056117
2,1, 7,21, 0,15, 0.00,60.00,SummerDesignDay
8,23.799986320868798
11,976364152.7518913
123,709643528.6045079
2,1, 7,21, 0,15, 0.00,60.00,SummerDesignDay
545,25.337777813775216
2,1, 7,21, 0,16, 0.00,60.00,SummerDesignDay
8,23.653081835774505
11,971670230.2594272
123,709624559.5166991
2,1, 7,21, 0,16, 0.00,60.00,SummerDesignDay
545,25.314153730286127
2,1, 7,21, 0,17, 0.00,60.00,SummerDesignDay
8,23.4558543827806
11,965322749.1713222
123,710116854.2479644
2,1, 7,21, 0,17, 0.00,60.00,SummerDesignDay
545,25.19993603192831
2,1, 7,21, 0,18, 0.00,60.00,SummerDesignDay
8,23.207119318496696
11,969075628.3034684
123,734112177.5431376
2,1, 7,21, 0,18, 0.00,60.00,SummerDesignDay
545,24.964976885502986
2,1, 7,21, 0,19, 0.00,60.00,SummerDesignDay
8,22.82933132300861
11,975422076.3107646
123,759244172.954524
2,1, 7,21, 0,19, 0.00,60.00,SummerDesignDay
545,24.48671518909979
2,1, 7,21, 0,20, 0.00,60.00,SummerDesignDay
8,22.548645905899027
11,954560309.4635617
123,761217084.2753357
2,1, 7,21, 0,20, 0.00,60.00,SummerDesignDay
545,24.20369834446172
2,1, 7,21, 0,21, 0.00,60.00,SummerDesignDay
8,22.312987690310977
11,980424535.0639796
123,757119370.8279545
2,1, 7,21, 0,21, 0.00,60.00,SummerDesignDay
545,24.09762126067254
2,1, 7,21, 0,22, 0.00,60.00,SummerDesignDay
8,21.475995587251039
11,953114920.8020566
123,759259042.5386694
2,1, 7,21, 0,22, 0.00,60.00,SummerDesignDay
545,24.03824739323938
2,1, 7,21, 0,23, 0.00,60.00,SummerDesignDay
8,20.824995071347869
11,914618062.580442
123,737461140.3377552
2,1, 7,21, 0,23, 0.00,60.00,SummerDesignDay
545,24.00450697261671
2,1, 7,21, 0,24, 0.00,60.00,SummerDesignDay
8,20.173995840857065
11,866292369.1359768
123,701142747.1663563
2,1, 7,21, 0,24, 0.00,60.00,SummerDesignDay
545,23.985194861408425
3,1, 7,21, 0,SummerDesignDay
546,67.56846623044815,63.54931173952691, 8,60,73.42911033478612, 2,60
4,1, 7
7,22.812875000000003,18.5,21, 5,60,27.8,21,14,60
1,BUFFALO NIAGARA INTL AP ANN HTG 99.6% CONDNS DB,  42.93, -78.73,  -5.00, 215.00
2,1, 1,21, 0, 1, 0.00,60.00,WinterDesignDay
8,-16.3
11,138588865.9135665
123,2855995212.1469557
2,1, 1,21, 0, 1, 0.00,60.00,WinterDesignDay
545,20.999999999999966
2,1, 1,21, 0, 2, 0.00,60.00,WinterDesignDay
8,-16.3
11,115572773.00450868
123,2485476664.7786967
2,1, 1,21, 0, 2, 0.00,60.00,WinterDesignDay
545,21.000000000000019
2,1, 1,21, 0, 3, 0.00,60.00,WinterDesignDay
8,-16.3
11,115572813.51144153
123,2476757023.7471315
2,1, 1,21, 0, 3, 0.00,60.00,WinterDesignDay
545,20.999999999999966
2,1, 1,21, 0, 4, 0.00,60.00,WinterDesignDay
8,-16.3
11,115572853.67689863
123,2476757023.7471339
2,1, 1,21, 0, 4, 0.00,60.00,WinterDesignDay
545,21.000000000000026
2,1, 1,21, 0, 5, 0.00,60.00,WinterDesignDay
8,-16.3
11,115572893.50454568
123,2476757023.7471306
2,1, 1,21, 0, 5, 0.00,60.00,WinterDesignDay
545,20.999999999999969
2,1, 1,21, 0, 6, 0.00,60.00,WinterDesignDay
8,-16.3
11,115758906.72367025
123,2476757023.747136
2,1, 1,21, 0, 6, 0.00,60.00,WinterDesignDay
545,21.000000000000026
2,1, 1,21, 0, 7, 0.00,60.00,WinterDesignDay
8,-16.3
11,119874790.93089442
123,2853668878.668
2,1, 1,21, 0, 7, 0.00,60.00,WinterDesignDay
545,20.999999999999976
2,1, 1,21, 0, 8, 0.00,60.00,WinterDesignDay
8,-16.3
11,119874831.37554781
123,2853669018.433805
2,1, 1,21, 0, 8, 0.00,60.00,WinterDesignDay
545,21.000000000000026
2,1, 1,21, 0, 9, 0.00,60.00,WinterDesignDay
8,-16.3
11,62918643.5354748
123,2853669157.6677906
2,1, 1,21, 0, 9, 0.00,60.00,WinterDesignDay
545,21.000000000000019
2,1, 1,21, 0,10, 0.00,60.00,WinterDesignDay
8,-16.3
11,121483614.32913539
123,2927530080.6320197
2,1, 1,21, 0,10, 0.00,60.00,WinterDesignDay
545,20.999999999999966
2,1, 1,21, 0,11, 0.00,60.00,WinterDesignDay
8,-16.3
11,114400986.14895553
123,2922346238.865085
2,1, 1,21, 0,11, 0.00,60.00,WinterDesignDay
545,21.000000000000019
2,1, 1,21, 0,12, 0.00,60.00,WinterDesignDay
8,-16.3
11,120300979.43584651
123,2936372535.9561879
2,1, 1,21, 0,12, 0.00,60.00,WinterDesignDay
545,20.99999999999997
2,1, 1,21, 0,13, 0.00,60.00,WinterDesignDay
8,-16.3
11,119914614.69132689
123,2936372535.9561927
2,1, 1,21, 0,13, 0.00,60.00,WinterDesignDay
545,21.000000000000026
2,1, 1,21, 0,14, 0.00,60.00,WinterDesignDay
8,-16.3
11,114194648.97652109
123,2922348680.4222099
2,1, 1,21, 0,14, 0.00,60.00,WinterDesignDay
545,20.99999999999997
2,1, 1,21, 0,15, 0.00,60.00,WinterDesignDay
8,-16.3
11,108711399.72427212
123,2907586002.009696
2,1, 1,21, 0,15, 0.00,60.00,WinterDesignDay
545,21.00000000000003
2,1, 1,21, 0,16, 0.00,60.00,WinterDesignDay
8,-16.3
11,108470117.14489933
123,2913672236.6198589
2,1, 1,21, 0,16, 0.00,60.00,WinterDesignDay
545,21.000000000000015
2,1, 1,21, 0,17, 0.00,60.00,WinterDesignDay
8,-16.3
11,103172697.01322852
123,2900546780.575395
2,1, 1,21, 0,17, 0.00,60.00,WinterDesignDay
545,21.000000000000008
2,1, 1,21, 0,18, 0.00,60.00,WinterDesignDay
8,-16.3
11,165730458.9976911
123,2907585278.52849
2,1, 1,21, 0,18, 0.00,60.00,WinterDesignDay
545,20.99999999999996
2,1, 1,21, 0,19, 0.00,60.00,WinterDesignDay
8,-16.3
11,185495869.1903343
123,2936372535.9561927
2,1, 1,21, 0,19, 0.00,60.00,WinterDesignDay
545,21.000000000000019
2,1, 1,21, 0,20, 0.00,60.00,WinterDesignDay
8,-16.3
11,186465983.82256855
123,2936372535.956188
2,1, 1,21, 0,20, 0.00,60.00,WinterDesignDay
545,20.999999999999966
2,1, 1,21, 0,21, 0.00,60.00,WinterDesignDay
8,-16.3
11,178496902.32762457
123,2936372535.9561927
2,1, 1,21, 0,21, 0.00,60.00,WinterDesignDay
545,21.000000000000026
2,1, 1,21, 0,22, 0.00,60.00,WinterDesignDay
8,-16.3
11,184757979.84983463
123,2936372535.9561889
2,1, 1,21, 0,22, 0.00,60.00,WinterDesignDay
545,21.000000000000015
2,1, 1,21, 0,23, 0.00,60.00,WinterDesignDay
8,-16.3
11,165759120.19168655
123,2921973309.6489975
2,1, 1,21, 0,23, 0.00,60.00,WinterDesignDay
545,20.999999999999966
2,1, 1,21, 0,24, 0.00,60.00,WinterDesignDay
8,-16.3
11,154225043.337331
123,2875631315.8601858
2,1, 1,21, 0,24, 0.00,60.00,WinterDesignDay
545,20.99999999999998
3,1, 1,21, 0,WinterDesignDay
546,5.890092393490872,5.890092235236945, 2,60,5.890092580518239, 1,60
4,1, 1
7,-16.300000000000009,-16.3,21, 1,60,-16.3,21, 1,60
End of Data
 Number of Records Written=         294
