Program Version,EnergyPlus, Version 9.1.0-08d2e308bb, YMD=2019.12.31 12:53
1,5,Environment Title[],Latitude[deg],Longitude[deg],Time Zone[],Elevation[m]
2,8,Day of Simulation[],Month[],Day of Month[],DST Indicator[1=yes 0=no],Hour[],StartMinute[],EndMinute[],DayType
3,5,Cumulative Day of Simulation[],Month[],Day of Month[],DST Indicator[1=yes 0=no],DayType  ! When Daily Report Variables Requested
4,2,Cumulative Days of Simulation[],Month[]  ! When Monthly Report Variables Requested
5,1,Cumulative Days of Simulation[] ! When Run Period Report Variables Requested
6,1,Calendar Year of Simulation[] ! When Annual Report Variables Requested
7,9,Environment,Site Outdoor Air Drybulb Temperature [C] !Monthly [Value,Min,Day,Hour,Minute,Max,Day,Hour,Minute]
8,1,Environment,Site Outdoor Air Wetbulb Temperature [C] !TimeStep
395,1,BUILDING STORY 1 THERMALZONE,Zone Air Temperature [C] !Hourly
396,7,BUILDING STORY 1 THERMALZONE,Zone Air Relative Humidity [%] !Daily [Value,Min,Hour,Minute,Max,Hour,Minute]
10,1,Electricity:Facility [J] !TimeStep
740,1,Gas:Facility [J] !TimeStep
End of Data Dictionary
1,BUFFALO NIAGARA INTL AP ANN CLG .4% CONDNS DB=>MWB,  42.93, -78.73,  -5.00, 215.00
2,1, 7,21, 0, 1, 0.00,60.00,SummerDesignDay
8,19.36840579326866
10,25678993.954624777
740,0.0
2,1, 7,21, 0, 1, 0.00,60.00,SummerDesignDay
395,24.40021467192567
2,1, 7,21, 0, 2, 0.00,60.00,SummerDesignDay
8,19.25226217922265
10,23606435.05525283
740,0.0
2,1, 7,21, 0, 2, 0.00,60.00,SummerDesignDay
395,24.400123276375156
2,1, 7,21, 0, 3, 0.00,60.00,SummerDesignDay
8,19.164819553782637
10,22333831.28371479
740,0.0
2,1, 7,21, 0, 3, 0.00,60.00,SummerDesignDay
395,24.400056162920845
2,1, 7,21, 0, 4, 0.00,60.00,SummerDesignDay
8,19.0770792448193
10,21661568.5164073
740,0.0
2,1, 7,21, 0, 4, 0.00,60.00,SummerDesignDay
395,24.37976115684472
2,1, 7,21, 0, 5, 0.00,60.00,SummerDesignDay
8,19.018427637799467
10,22679478.78007954
740,0.0
2,1, 7,21, 0, 5, 0.00,60.00,SummerDesignDay
395,24.345680984719153
2,1, 7,21, 0, 6, 0.00,60.00,SummerDesignDay
8,19.0770792448193
10,23331283.3799288
740,0.0
2,1, 7,21, 0, 6, 0.00,60.00,SummerDesignDay
395,24.38281669651384
2,1, 7,21, 0, 7, 0.00,60.00,SummerDesignDay
8,19.281346189070228
10,49652353.34101059
740,0.0
2,1, 7,21, 0, 7, 0.00,60.00,SummerDesignDay
395,24.392020877687917
2,1, 7,21, 0, 8, 0.00,60.00,SummerDesignDay
8,19.770887505670989
10,78824057.93510549
740,0.0
2,1, 7,21, 0, 8, 0.00,60.00,SummerDesignDay
395,24.393967913234236
2,1, 7,21, 0, 9, 0.00,60.00,SummerDesignDay
8,20.30732185289352
10,63253893.46666672
740,0.0
2,1, 7,21, 0, 9, 0.00,60.00,SummerDesignDay
395,24.394308945928559
2,1, 7,21, 0,10, 0.00,60.00,SummerDesignDay
8,20.778037156782458
10,63668953.67126841
740,0.0
2,1, 7,21, 0,10, 0.00,60.00,SummerDesignDay
395,24.395377985852666
2,1, 7,21, 0,11, 0.00,60.00,SummerDesignDay
8,21.186337137460165
10,63144600.47247981
740,0.0
2,1, 7,21, 0,11, 0.00,60.00,SummerDesignDay
395,24.396927681249115
2,1, 7,21, 0,12, 0.00,60.00,SummerDesignDay
8,21.45495938709981
10,61164967.833899538
740,0.0
2,1, 7,21, 0,12, 0.00,60.00,SummerDesignDay
395,24.398266118881858
2,1, 7,21, 0,13, 0.00,60.00,SummerDesignDay
8,21.667839996742449
10,61351795.38192636
740,0.0
2,1, 7,21, 0,13, 0.00,60.00,SummerDesignDay
395,24.39872925728941
2,1, 7,21, 0,14, 0.00,60.00,SummerDesignDay
8,21.799990419629109
10,46825776.0076043
740,0.0
2,1, 7,21, 0,14, 0.00,60.00,SummerDesignDay
395,24.398452995553187
2,1, 7,21, 0,15, 0.00,60.00,SummerDesignDay
8,21.799990419629109
10,65298038.37725306
740,0.0
2,1, 7,21, 0,15, 0.00,60.00,SummerDesignDay
395,24.397949269647517
2,1, 7,21, 0,16, 0.00,60.00,SummerDesignDay
8,21.641326796728476
10,67974512.44731456
740,0.0
2,1, 7,21, 0,16, 0.00,60.00,SummerDesignDay
395,24.397544394463993
2,1, 7,21, 0,17, 0.00,60.00,SummerDesignDay
8,21.42822317147698
10,56389838.98209299
740,0.0
2,1, 7,21, 0,17, 0.00,60.00,SummerDesignDay
395,24.39728326727703
2,1, 7,21, 0,18, 0.00,60.00,SummerDesignDay
8,21.15931786227956
10,78183017.42776767
740,0.0
2,1, 7,21, 0,18, 0.00,60.00,SummerDesignDay
395,24.397373473881929
2,1, 7,21, 0,19, 0.00,60.00,SummerDesignDay
8,20.750583661392644
10,92711873.97609529
740,0.0
2,1, 7,21, 0,19, 0.00,60.00,SummerDesignDay
395,24.398286189715269
2,1, 7,21, 0,20, 0.00,60.00,SummerDesignDay
8,20.446661088459409
10,66785181.10978555
740,0.0
2,1, 7,21, 0,20, 0.00,60.00,SummerDesignDay
395,24.399627109483935
2,1, 7,21, 0,21, 0.00,60.00,SummerDesignDay
8,20.19530361990708
10,71127680.90948825
740,0.0
2,1, 7,21, 0,21, 0.00,60.00,SummerDesignDay
395,24.40013870867773
2,1, 7,21, 0,22, 0.00,60.00,SummerDesignDay
8,19.941485234887624
10,61904042.6287624
740,0.0
2,1, 7,21, 0,22, 0.00,60.00,SummerDesignDay
395,24.400266827257917
2,1, 7,21, 0,23, 0.00,60.00,SummerDesignDay
8,19.7423381019073
10,44156062.444046188
740,0.0
2,1, 7,21, 0,23, 0.00,60.00,SummerDesignDay
395,24.40031245545709
2,1, 7,21, 0,24, 0.00,60.00,SummerDesignDay
8,19.54165603023991
10,50610126.698980759
740,0.0
2,1, 7,21, 0,24, 0.00,60.00,SummerDesignDay
395,24.400299795967766
3,1, 7,21, 0,SummerDesignDay
396,55.56472586822568,49.36162292730676,18,60,64.717482036482, 6,60
4,1, 7
7,25.312875000000003,21.0,21, 5,60,30.3,21,14,60
1,BUFFALO NIAGARA INTL AP ANN CLG .4% CONDNS WB=>MDB,  42.93, -78.73,  -5.00, 215.00
2,1, 7,21, 0, 1, 0.00,60.00,SummerDesignDay
8,19.615996954992807
10,23117478.048062985
740,0.0
2,1, 7,21, 0, 1, 0.00,60.00,SummerDesignDay
395,24.272114027353714
2,1, 7,21, 0, 2, 0.00,60.00,SummerDesignDay
8,19.243988037109376
10,22285529.744259735
740,0.0
2,1, 7,21, 0, 2, 0.00,60.00,SummerDesignDay
395,24.062931898704947
2,1, 7,21, 0, 3, 0.00,60.00,SummerDesignDay
8,18.96499632356402
10,21869555.59235642
740,0.0
2,1, 7,21, 0, 3, 0.00,60.00,SummerDesignDay
395,23.856704602328305
2,1, 7,21, 0, 4, 0.00,60.00,SummerDesignDay
8,18.685989379882814
10,21661568.5164073
740,0.0
2,1, 7,21, 0, 4, 0.00,60.00,SummerDesignDay
395,23.6719953555918
2,1, 7,21, 0, 5, 0.00,60.00,SummerDesignDay
8,18.49999810986028
10,22679478.78007954
740,0.0
2,1, 7,21, 0, 5, 0.00,60.00,SummerDesignDay
395,23.53514592372228
2,1, 7,21, 0, 6, 0.00,60.00,SummerDesignDay
8,18.685989379882814
10,19456705.443889794
740,0.0
2,1, 7,21, 0, 6, 0.00,60.00,SummerDesignDay
395,23.81531368551184
2,1, 7,21, 0, 7, 0.00,60.00,SummerDesignDay
8,19.336990356445314
10,45760684.59508006
740,0.0
2,1, 7,21, 0, 7, 0.00,60.00,SummerDesignDay
395,24.292658253523045
2,1, 7,21, 0, 8, 0.00,60.00,SummerDesignDay
8,20.917992548817627
10,77002791.0642614
740,0.0
2,1, 7,21, 0, 8, 0.00,60.00,SummerDesignDay
395,24.38155844705055
2,1, 7,21, 0, 9, 0.00,60.00,SummerDesignDay
8,22.420023807696297
10,62810688.627179328
740,0.0
2,1, 7,21, 0, 9, 0.00,60.00,SummerDesignDay
395,24.39090772293876
2,1, 7,21, 0,10, 0.00,60.00,SummerDesignDay
8,22.854695006230427
10,63390857.23910091
740,0.0
2,1, 7,21, 0,10, 0.00,60.00,SummerDesignDay
395,24.39399920567442
2,1, 7,21, 0,11, 0.00,60.00,SummerDesignDay
8,23.232104587122938
10,62770868.445085328
740,0.0
2,1, 7,21, 0,11, 0.00,60.00,SummerDesignDay
395,24.396111978509354
2,1, 7,21, 0,12, 0.00,60.00,SummerDesignDay
8,23.480593542408348
10,60485702.639364589
740,0.0
2,1, 7,21, 0,12, 0.00,60.00,SummerDesignDay
395,24.397831162281404
2,1, 7,21, 0,13, 0.00,60.00,SummerDesignDay
8,23.677626430315248
10,60756287.36357663
740,0.0
2,1, 7,21, 0,13, 0.00,60.00,SummerDesignDay
395,24.398294725084438
2,1, 7,21, 0,14, 0.00,60.00,SummerDesignDay
8,23.799986320868798
10,46594730.934749949
740,0.0
2,1, 7,21, 0,14, 0.00,60.00,SummerDesignDay
395,24.39760647380118
2,1, 7,21, 0,15, 0.00,60.00,SummerDesignDay
8,23.799986320868798
10,65331667.38221018
740,0.0
2,1, 7,21, 0,15, 0.00,60.00,SummerDesignDay
395,24.396628118655739
2,1, 7,21, 0,16, 0.00,60.00,SummerDesignDay
8,23.653081835774505
10,68059912.24197671
740,0.0
2,1, 7,21, 0,16, 0.00,60.00,SummerDesignDay
395,24.396002495578214
2,1, 7,21, 0,17, 0.00,60.00,SummerDesignDay
8,23.4558543827806
10,56441684.46144218
740,0.0
2,1, 7,21, 0,17, 0.00,60.00,SummerDesignDay
395,24.395718417129083
2,1, 7,21, 0,18, 0.00,60.00,SummerDesignDay
8,23.207119318496696
10,78088061.39029567
740,0.0
2,1, 7,21, 0,18, 0.00,60.00,SummerDesignDay
395,24.396066001273213
2,1, 7,21, 0,19, 0.00,60.00,SummerDesignDay
8,22.82933132300861
10,92108836.89257252
740,0.0
2,1, 7,21, 0,19, 0.00,60.00,SummerDesignDay
395,24.39776824283365
2,1, 7,21, 0,20, 0.00,60.00,SummerDesignDay
8,22.548645905899027
10,65386734.856440138
740,0.0
2,1, 7,21, 0,20, 0.00,60.00,SummerDesignDay
395,24.399821300448278
2,1, 7,21, 0,21, 0.00,60.00,SummerDesignDay
8,22.312987690310977
10,69504284.87996866
740,0.0
2,1, 7,21, 0,21, 0.00,60.00,SummerDesignDay
395,24.40048104577063
2,1, 7,21, 0,22, 0.00,60.00,SummerDesignDay
8,21.475995587251039
10,60128937.22007175
740,0.0
2,1, 7,21, 0,22, 0.00,60.00,SummerDesignDay
395,24.400456491600335
2,1, 7,21, 0,23, 0.00,60.00,SummerDesignDay
8,20.824995071347869
10,41982153.14028108
740,0.0
2,1, 7,21, 0,23, 0.00,60.00,SummerDesignDay
395,24.40033692502967
2,1, 7,21, 0,24, 0.00,60.00,SummerDesignDay
8,20.173995840857065
10,47274694.36759665
740,0.0
2,1, 7,21, 0,24, 0.00,60.00,SummerDesignDay
395,24.400160889505636
3,1, 7,21, 0,SummerDesignDay
396,63.96397503754256,54.87619960836424,18,60,75.30698013746773, 5,60
4,1, 7
7,22.812875000000003,18.5,21, 5,60,27.8,21,14,60
1,BUFFALO NIAGARA INTL AP ANN HTG 99.6% CONDNS DB,  42.93, -78.73,  -5.00, 215.00
2,1, 1,21, 0, 1, 0.00,60.00,WinterDesignDay
8,-16.3
10,22223881.005852555
740,166232074.14564774
2,1, 1,21, 0, 1, 0.00,60.00,WinterDesignDay
395,21.703211411272414
2,1, 1,21, 0, 2, 0.00,60.00,WinterDesignDay
8,-16.3
10,21396188.084566658
740,167359268.36091797
2,1, 1,21, 0, 2, 0.00,60.00,WinterDesignDay
395,21.70344785654497
2,1, 1,21, 0, 3, 0.00,60.00,WinterDesignDay
8,-16.3
10,20982155.67074475
740,167891504.90287856
2,1, 1,21, 0, 3, 0.00,60.00,WinterDesignDay
395,21.703570875315579
2,1, 1,21, 0, 4, 0.00,60.00,WinterDesignDay
8,-16.3
10,20775138.713015945
740,168160141.56422768
2,1, 1,21, 0, 4, 0.00,60.00,WinterDesignDay
395,21.70363752526541
2,1, 1,21, 0, 5, 0.00,60.00,WinterDesignDay
8,-16.3
10,21791207.293577374
740,167558926.0634068
2,1, 1,21, 0, 5, 0.00,60.00,WinterDesignDay
395,21.703603932942014
2,1, 1,21, 0, 6, 0.00,60.00,WinterDesignDay
8,-16.3
10,24605247.887517666
740,165274387.0922979
2,1, 1,21, 0, 6, 0.00,60.00,WinterDesignDay
395,21.703389478258324
2,1, 1,21, 0, 7, 0.00,60.00,WinterDesignDay
8,-16.3
10,66266619.72132646
740,162621417.42491184
2,1, 1,21, 0, 7, 0.00,60.00,WinterDesignDay
395,21.7031103125026
2,1, 1,21, 0, 8, 0.00,60.00,WinterDesignDay
8,-16.3
10,50529016.62459499
740,161572035.57368184
2,1, 1,21, 0, 8, 0.00,60.00,WinterDesignDay
395,21.70295469281515
2,1, 1,21, 0, 9, 0.00,60.00,WinterDesignDay
8,-16.3
10,57439502.31321964
740,165797989.49731273
2,1, 1,21, 0, 9, 0.00,60.00,WinterDesignDay
395,21.70327112778676
2,1, 1,21, 0,10, 0.00,60.00,WinterDesignDay
8,-16.3
10,38868427.29278642
740,167171801.6146222
2,1, 1,21, 0,10, 0.00,60.00,WinterDesignDay
395,21.703467059543745
2,1, 1,21, 0,11, 0.00,60.00,WinterDesignDay
8,-16.3
10,56469417.91233864
740,166904227.9513341
2,1, 1,21, 0,11, 0.00,60.00,WinterDesignDay
395,21.70346400421852
2,1, 1,21, 0,12, 0.00,60.00,WinterDesignDay
8,-16.3
10,38886169.06997468
740,166740836.06619517
2,1, 1,21, 0,12, 0.00,60.00,WinterDesignDay
395,21.7034194384038
2,1, 1,21, 0,13, 0.00,60.00,WinterDesignDay
8,-16.3
10,38045701.80336882
740,166901099.85620675
2,1, 1,21, 0,13, 0.00,60.00,WinterDesignDay
395,21.703400180218517
2,1, 1,21, 0,14, 0.00,60.00,WinterDesignDay
8,-16.3
10,21491926.98666568
740,167480876.8781106
2,1, 1,21, 0,14, 0.00,60.00,WinterDesignDay
395,21.703432001151176
2,1, 1,21, 0,15, 0.00,60.00,WinterDesignDay
8,-16.3
10,37371422.90988429
740,167710763.45305235
2,1, 1,21, 0,15, 0.00,60.00,WinterDesignDay
395,21.703447726185268
2,1, 1,21, 0,16, 0.00,60.00,WinterDesignDay
8,-16.3
10,38895405.670678097
740,166671994.47247554
2,1, 1,21, 0,16, 0.00,60.00,WinterDesignDay
395,21.703341303580179
2,1, 1,21, 0,17, 0.00,60.00,WinterDesignDay
8,-16.3
10,43352877.35767543
740,162607087.99252767
2,1, 1,21, 0,17, 0.00,60.00,WinterDesignDay
395,21.702948838583575
2,1, 1,21, 0,18, 0.00,60.00,WinterDesignDay
8,-16.3
10,58885617.03853706
740,155631658.32012538
2,1, 1,21, 0,18, 0.00,60.00,WinterDesignDay
395,21.702311866536389
2,1, 1,21, 0,19, 0.00,60.00,WinterDesignDay
8,-16.3
10,62769004.83225379
740,151320152.4714414
2,1, 1,21, 0,19, 0.00,60.00,WinterDesignDay
395,21.70187007011929
2,1, 1,21, 0,20, 0.00,60.00,WinterDesignDay
8,-16.3
10,76513317.95389709
740,151487531.71706314
2,1, 1,21, 0,20, 0.00,60.00,WinterDesignDay
395,21.701780191717967
2,1, 1,21, 0,21, 0.00,60.00,WinterDesignDay
8,-16.3
10,59691216.64156238
740,152020089.06724695
2,1, 1,21, 0,21, 0.00,60.00,WinterDesignDay
395,21.701809716335345
2,1, 1,21, 0,22, 0.00,60.00,WinterDesignDay
8,-16.3
10,55962492.10003083
740,153516476.2345031
2,1, 1,21, 0,22, 0.00,60.00,WinterDesignDay
395,21.70192615260685
2,1, 1,21, 0,23, 0.00,60.00,WinterDesignDay
8,-16.3
10,50321254.73098098
740,158375898.9794879
2,1, 1,21, 0,23, 0.00,60.00,WinterDesignDay
395,21.702312021945649
2,1, 1,21, 0,24, 0.00,60.00,WinterDesignDay
8,-16.3
10,42845115.397871498
740,162691841.30219639
2,1, 1,21, 0,24, 0.00,60.00,WinterDesignDay
395,21.702768320909489
3,1, 1,21, 0,WinterDesignDay
396,7.263387720879744,6.612948700054372,17,60,7.835443142982912, 7,60
4,1, 1
7,-16.300000000000009,-16.3,21, 1,60,-16.3,21, 1,60
End of Data
 Number of Records Written=         294
