Program Version,EnergyPlus, Version 9.1.0-08d2e308bb, YMD=2019.12.31 12:48
1,5,Environment Title[],Latitude[deg],Longitude[deg],Time Zone[],Elevation[m]
2,8,Day of Simulation[],Month[],Day of Month[],DST Indicator[1=yes 0=no],Hour[],StartMinute[],EndMinute[],DayType
3,5,Cumulative Day of Simulation[],Month[],Day of Month[],DST Indicator[1=yes 0=no],DayType  ! When Daily Report Variables Requested
4,2,Cumulative Days of Simulation[],Month[]  ! When Monthly Report Variables Requested
5,1,Cumulative Days of Simulation[] ! When Run Period Report Variables Requested
6,1,Calendar Year of Simulation[] ! When Annual Report Variables Requested
7,9,Environment,Site Outdoor Air Drybulb Temperature [C] !Monthly [Value,Min,Day,Hour,Minute,Max,Day,Hour,Minute]
8,1,Environment,Site Outdoor Air Wetbulb Temperature [C] !TimeStep
488,1,BUILDING STORY 1 THERMALZONE,Zone Air Temperature [C] !Hourly
489,7,BUILDING STORY 1 THERMALZONE,Zone Air Relative Humidity [%] !Daily [Value,Min,Hour,Minute,Max,Hour,Minute]
528,1,BUILDING STORY 2 THERMALZONE,Zone Air Temperature [C] !Hourly
529,7,BUILDING STORY 2 THERMALZONE,Zone Air Relative Humidity [%] !Daily [Value,Min,Hour,Minute,Max,Hour,Minute]
568,1,BUILDING STORY 3 THERMALZONE,Zone Air Temperature [C] !Hourly
569,7,BUILDING STORY 3 THERMALZONE,Zone Air Relative Humidity [%] !Daily [Value,Min,Hour,Minute,Max,Hour,Minute]
10,1,Electricity:Facility [J] !TimeStep
925,1,Gas:Facility [J] !TimeStep
End of Data Dictionary
1,BUFFALO NIAGARA INTL AP ANN CLG .4% CONDNS DB=>MWB,  42.93, -78.73,  -5.00, 215.00
2,1, 7,21, 0, 1, 0.00,60.00,SummerDesignDay
8,19.36840579326866
10,538664131.7979103
925,0.0
2,1, 7,21, 0, 1, 0.00,60.00,SummerDesignDay
488,24.40022686010473
528,24.399485350763017
568,24.39824689884552
2,1, 7,21, 0, 2, 0.00,60.00,SummerDesignDay
8,19.25226217922265
10,517280468.2078075
925,0.0
2,1, 7,21, 0, 2, 0.00,60.00,SummerDesignDay
488,24.400159307783576
528,24.399531273776405
568,24.39849126341578
2,1, 7,21, 0, 3, 0.00,60.00,SummerDesignDay
8,19.164819553782637
10,503815249.301304
925,0.0
2,1, 7,21, 0, 3, 0.00,60.00,SummerDesignDay
488,24.400064528129815
528,24.399531625947174
568,24.39865213300744
2,1, 7,21, 0, 4, 0.00,60.00,SummerDesignDay
8,19.0770792448193
10,493552067.57496055
925,0.0
2,1, 7,21, 0, 4, 0.00,60.00,SummerDesignDay
488,24.39997436123661
528,24.399523614342916
568,24.39877657524575
2,1, 7,21, 0, 5, 0.00,60.00,SummerDesignDay
8,19.018427637799467
10,501460151.6634305
925,0.0
2,1, 7,21, 0, 5, 0.00,60.00,SummerDesignDay
488,24.39987903165195
528,24.39948813233206
568,24.398848278168655
2,1, 7,21, 0, 6, 0.00,60.00,SummerDesignDay
8,19.0770792448193
10,499168094.4942769
925,0.0
2,1, 7,21, 0, 6, 0.00,60.00,SummerDesignDay
488,24.399441821947766
528,24.399094228549939
568,24.398463346010069
2,1, 7,21, 0, 7, 0.00,60.00,SummerDesignDay
8,19.281346189070228
10,783485114.0784414
925,0.0
2,1, 7,21, 0, 7, 0.00,60.00,SummerDesignDay
488,24.398129270627739
528,24.398107114513306
568,24.397253422094275
2,1, 7,21, 0, 8, 0.00,60.00,SummerDesignDay
8,19.770887505670989
10,1060876598.4234074
925,0.0
2,1, 7,21, 0, 8, 0.00,60.00,SummerDesignDay
488,24.396815815932276
528,24.397163531521785
568,24.395541461528845
2,1, 7,21, 0, 9, 0.00,60.00,SummerDesignDay
8,20.30732185289352
10,864516893.8692256
925,0.0
2,1, 7,21, 0, 9, 0.00,60.00,SummerDesignDay
488,24.397265905856579
528,24.397250584664609
568,24.39446930101695
2,1, 7,21, 0,10, 0.00,60.00,SummerDesignDay
8,20.778037156782458
10,873531064.151443
925,0.0
2,1, 7,21, 0,10, 0.00,60.00,SummerDesignDay
488,24.39820737919699
528,24.39776345226618
568,24.39413504552129
2,1, 7,21, 0,11, 0.00,60.00,SummerDesignDay
8,21.186337137460165
10,882979030.465241
925,0.0
2,1, 7,21, 0,11, 0.00,60.00,SummerDesignDay
488,24.399166226641378
528,24.39839246823482
568,24.39433439524865
2,1, 7,21, 0,12, 0.00,60.00,SummerDesignDay
8,21.45495938709981
10,878748610.4817507
925,0.0
2,1, 7,21, 0,12, 0.00,60.00,SummerDesignDay
488,24.39989481897032
528,24.398930553800633
568,24.39477500909958
2,1, 7,21, 0,13, 0.00,60.00,SummerDesignDay
8,21.667839996742449
10,886351137.8597249
925,0.0
2,1, 7,21, 0,13, 0.00,60.00,SummerDesignDay
488,24.40009678820862
528,24.399085064012245
568,24.39481357910751
2,1, 7,21, 0,14, 0.00,60.00,SummerDesignDay
8,21.799990419629109
10,711634706.0374614
925,0.0
2,1, 7,21, 0,14, 0.00,60.00,SummerDesignDay
488,24.399889975533058
528,24.398902602768634
568,24.39438037817438
2,1, 7,21, 0,15, 0.00,60.00,SummerDesignDay
8,21.799990419629109
10,914514683.4677129
925,0.0
2,1, 7,21, 0,15, 0.00,60.00,SummerDesignDay
488,24.39953873637913
528,24.398589668261086
568,24.393854302003743
2,1, 7,21, 0,16, 0.00,60.00,SummerDesignDay
8,21.641326796728476
10,939851324.5554558
925,0.0
2,1, 7,21, 0,16, 0.00,60.00,SummerDesignDay
488,24.3991549133719
528,24.398232594045444
568,24.39348393982102
2,1, 7,21, 0,17, 0.00,60.00,SummerDesignDay
8,21.42822317147698
10,805705358.9962248
925,0.0
2,1, 7,21, 0,17, 0.00,60.00,SummerDesignDay
488,24.398733243949275
528,24.397846523331155
568,24.393287650843744
2,1, 7,21, 0,18, 0.00,60.00,SummerDesignDay
8,21.15931786227956
10,1064063903.2919823
925,0.0
2,1, 7,21, 0,18, 0.00,60.00,SummerDesignDay
488,24.398367269347493
528,24.397509968626357
568,24.393374830342706
2,1, 7,21, 0,19, 0.00,60.00,SummerDesignDay
8,20.750583661392644
10,1055687395.9212754
925,0.0
2,1, 7,21, 0,19, 0.00,60.00,SummerDesignDay
488,24.398685463449686
528,24.397650083810747
568,24.3941545572451
2,1, 7,21, 0,20, 0.00,60.00,SummerDesignDay
8,20.446661088459409
10,1159737629.0042
925,0.0
2,1, 7,21, 0,20, 0.00,60.00,SummerDesignDay
488,24.399675045191274
528,24.398391340146359
568,24.395527551111984
2,1, 7,21, 0,21, 0.00,60.00,SummerDesignDay
8,20.19530361990708
10,1056259529.7919245
925,0.0
2,1, 7,21, 0,21, 0.00,60.00,SummerDesignDay
488,24.399996057973948
528,24.398730484352244
568,24.396367395380556
2,1, 7,21, 0,22, 0.00,60.00,SummerDesignDay
8,19.941485234887624
10,775932195.0739248
925,0.0
2,1, 7,21, 0,22, 0.00,60.00,SummerDesignDay
488,24.40000931781576
528,24.398853827812105
568,24.396905264436858
2,1, 7,21, 0,23, 0.00,60.00,SummerDesignDay
8,19.7423381019073
10,872309219.6480178
925,0.0
2,1, 7,21, 0,23, 0.00,60.00,SummerDesignDay
488,24.40013080146256
528,24.39909443332752
568,24.397415653050968
2,1, 7,21, 0,24, 0.00,60.00,SummerDesignDay
8,19.54165603023991
10,791547093.7150482
925,0.0
2,1, 7,21, 0,24, 0.00,60.00,SummerDesignDay
488,24.400208350540266
528,24.399318341013893
568,24.397864776034376
3,1, 7,21, 0,SummerDesignDay
489,55.230512798570398,51.098589431096169,19,60,61.12581381820379, 6,60
529,51.731233239868128,49.39308791015406,19,60,55.064406646025968, 6,60
569,54.045129579758768,51.22714645142346,18,60,57.91122906145605, 6,60
4,1, 7
7,25.312875000000003,21.0,21, 5,60,30.3,21,14,60
1,BUFFALO NIAGARA INTL AP ANN CLG .4% CONDNS WB=>MDB,  42.93, -78.73,  -5.00, 215.00
2,1, 7,21, 0, 1, 0.00,60.00,SummerDesignDay
8,19.615996954992807
10,516419544.18945237
925,0.0
2,1, 7,21, 0, 1, 0.00,60.00,SummerDesignDay
488,24.39992176833157
528,24.399032374257179
568,24.398094669047745
2,1, 7,21, 0, 2, 0.00,60.00,SummerDesignDay
8,19.243988037109376
10,490841603.73948517
925,0.0
2,1, 7,21, 0, 2, 0.00,60.00,SummerDesignDay
488,24.399822835247528
528,24.39912842315538
568,24.398529619983333
2,1, 7,21, 0, 3, 0.00,60.00,SummerDesignDay
8,18.96499632356402
10,473756384.75088229
925,0.0
2,1, 7,21, 0, 3, 0.00,60.00,SummerDesignDay
488,24.399766250789115
528,24.399190483827675
568,24.398833012559856
2,1, 7,21, 0, 4, 0.00,60.00,SummerDesignDay
8,18.685989379882814
10,460485055.4332555
925,0.0
2,1, 7,21, 0, 4, 0.00,60.00,SummerDesignDay
488,24.39973920612538
528,24.399235375385755
568,24.39905722156685
2,1, 7,21, 0, 5, 0.00,60.00,SummerDesignDay
8,18.49999810986028
10,466284056.33731189
925,0.0
2,1, 7,21, 0, 5, 0.00,60.00,SummerDesignDay
488,24.399712536136336
528,24.399251215651739
568,24.39920506354422
2,1, 7,21, 0, 6, 0.00,60.00,SummerDesignDay
8,18.685989379882814
10,466843220.2902903
925,0.0
2,1, 7,21, 0, 6, 0.00,60.00,SummerDesignDay
488,24.39924002263657
528,24.39891037873099
568,24.398946407485185
2,1, 7,21, 0, 7, 0.00,60.00,SummerDesignDay
8,19.336990356445314
10,757898283.7563205
925,0.0
2,1, 7,21, 0, 7, 0.00,60.00,SummerDesignDay
488,24.39781503620677
528,24.398002545268385
568,24.39788496776201
2,1, 7,21, 0, 8, 0.00,60.00,SummerDesignDay
8,20.917992548817627
10,1047372919.6546581
925,0.0
2,1, 7,21, 0, 8, 0.00,60.00,SummerDesignDay
488,24.396673706242063
528,24.397422047800448
568,24.39629000469979
2,1, 7,21, 0, 9, 0.00,60.00,SummerDesignDay
8,22.420023807696297
10,858381640.39711
925,0.0
2,1, 7,21, 0, 9, 0.00,60.00,SummerDesignDay
488,24.397615255211574
528,24.397773249055139
568,24.394860555853126
2,1, 7,21, 0,10, 0.00,60.00,SummerDesignDay
8,22.854695006230427
10,870519891.104014
925,0.0
2,1, 7,21, 0,10, 0.00,60.00,SummerDesignDay
488,24.398492787823643
528,24.397879221594378
568,24.393397766741278
2,1, 7,21, 0,11, 0.00,60.00,SummerDesignDay
8,23.232104587122938
10,882965372.6735318
925,0.0
2,1, 7,21, 0,11, 0.00,60.00,SummerDesignDay
488,24.39940145337751
528,24.398156260732116
568,24.392630085076666
2,1, 7,21, 0,12, 0.00,60.00,SummerDesignDay
8,23.480593542408348
10,878672655.481938
925,0.0
2,1, 7,21, 0,12, 0.00,60.00,SummerDesignDay
488,24.400190875573327
528,24.398571225884618
568,24.392605126665968
2,1, 7,21, 0,13, 0.00,60.00,SummerDesignDay
8,23.677626430315248
10,887922120.0303785
925,0.0
2,1, 7,21, 0,13, 0.00,60.00,SummerDesignDay
488,24.40028033903306
528,24.39855237270834
568,24.392206607364377
2,1, 7,21, 0,14, 0.00,60.00,SummerDesignDay
8,23.799986320868798
10,716068063.8016653
925,0.0
2,1, 7,21, 0,14, 0.00,60.00,SummerDesignDay
488,24.39973904035589
528,24.39807227789857
568,24.39118595420138
2,1, 7,21, 0,15, 0.00,60.00,SummerDesignDay
8,23.799986320868798
10,920641172.8821459
925,0.0
2,1, 7,21, 0,15, 0.00,60.00,SummerDesignDay
488,24.39905113132217
528,24.397494664133114
568,24.39018972112253
2,1, 7,21, 0,16, 0.00,60.00,SummerDesignDay
8,23.653081835774505
10,946328269.6510701
925,0.0
2,1, 7,21, 0,16, 0.00,60.00,SummerDesignDay
488,24.398469027567619
528,24.396991122602797
568,24.389662015464315
2,1, 7,21, 0,17, 0.00,60.00,SummerDesignDay
8,23.4558543827806
10,812412960.1609901
925,0.0
2,1, 7,21, 0,17, 0.00,60.00,SummerDesignDay
488,24.39789925440114
528,24.39649488682004
568,24.389502511264554
2,1, 7,21, 0,18, 0.00,60.00,SummerDesignDay
8,23.207119318496696
10,1070568228.3083854
925,0.0
2,1, 7,21, 0,18, 0.00,60.00,SummerDesignDay
488,24.39749240029911
528,24.39611604800104
568,24.38984101727309
2,1, 7,21, 0,19, 0.00,60.00,SummerDesignDay
8,22.82933132300861
10,1058895080.2335689
925,0.0
2,1, 7,21, 0,19, 0.00,60.00,SummerDesignDay
488,24.398375833536343
528,24.396623829670426
568,24.391381039708294
2,1, 7,21, 0,20, 0.00,60.00,SummerDesignDay
8,22.548645905899027
10,1159210829.3530656
925,0.0
2,1, 7,21, 0,20, 0.00,60.00,SummerDesignDay
488,24.40012244841606
528,24.398009947898477
568,24.393781784670425
2,1, 7,21, 0,21, 0.00,60.00,SummerDesignDay
8,22.312987690310977
10,1056226150.121883
925,0.0
2,1, 7,21, 0,21, 0.00,60.00,SummerDesignDay
488,24.400629049420528
528,24.398600104314956
568,24.395204716309235
2,1, 7,21, 0,22, 0.00,60.00,SummerDesignDay
8,21.475995587251039
10,774017693.7056296
925,0.0
2,1, 7,21, 0,22, 0.00,60.00,SummerDesignDay
488,24.4002436453758
528,24.39850813028656
568,24.395963298863977
2,1, 7,21, 0,23, 0.00,60.00,SummerDesignDay
8,20.824995071347869
10,863960918.7469956
925,0.0
2,1, 7,21, 0,23, 0.00,60.00,SummerDesignDay
488,24.40007819888591
528,24.398642077850597
568,24.39673259538638
2,1, 7,21, 0,24, 0.00,60.00,SummerDesignDay
8,20.173995840857065
10,775910369.7172972
925,0.0
2,1, 7,21, 0,24, 0.00,60.00,SummerDesignDay
488,24.39997891022955
528,24.398835968449327
568,24.39746750469613
3,1, 7,21, 0,SummerDesignDay
489,61.57335828661741,55.78899367486467,19,60,67.25682837593517, 5,60
529,57.03056544448555,54.42247565904425,19,60,58.89478506008755, 5,60
569,61.90131604084829,59.08543330406706,18,60,63.505232710502969, 1,60
4,1, 7
7,22.812875000000003,18.5,21, 5,60,27.8,21,14,60
1,BUFFALO NIAGARA INTL AP ANN HTG 99.6% CONDNS DB,  42.93, -78.73,  -5.00, 215.00
2,1, 1,21, 0, 1, 0.00,60.00,WinterDesignDay
8,-16.3
10,370362770.786929
925,1556543577.0143114
2,1, 1,21, 0, 1, 0.00,60.00,WinterDesignDay
488,21.700781357786139
528,21.700981446423645
568,21.702860842404033
2,1, 1,21, 0, 2, 0.00,60.00,WinterDesignDay
8,-16.3
10,360611638.8785104
925,1567314581.3147855
2,1, 1,21, 0, 2, 0.00,60.00,WinterDesignDay
488,21.700856705335334
528,21.7010727684633
568,21.70299417258645
2,1, 1,21, 0, 3, 0.00,60.00,WinterDesignDay
8,-16.3
10,355739001.85713669
925,1574255791.4677816
2,1, 1,21, 0, 3, 0.00,60.00,WinterDesignDay
488,21.700911297847925
528,21.701131402954738
568,21.703076882473174
2,1, 1,21, 0, 4, 0.00,60.00,WinterDesignDay
8,-16.3
10,353305956.95713296
925,1579163919.555762
2,1, 1,21, 0, 4, 0.00,60.00,WinterDesignDay
488,21.70095088645368
528,21.701172206025608
568,21.703131529373129
2,1, 1,21, 0, 5, 0.00,60.00,WinterDesignDay
8,-16.3
10,365264675.78969469
925,1576518690.9035884
2,1, 1,21, 0, 5, 0.00,60.00,WinterDesignDay
488,21.700952562911668
528,21.701179210435343
568,21.703137918447295
2,1, 1,21, 0, 6, 0.00,60.00,WinterDesignDay
8,-16.3
10,398386224.7708967
925,1558992088.3161605
2,1, 1,21, 0, 6, 0.00,60.00,WinterDesignDay
488,21.70088159382103
528,21.70112145420283
568,21.703058339110297
2,1, 1,21, 0, 7, 0.00,60.00,WinterDesignDay
8,-16.3
10,845830102.289332
925,1536606345.7593497
2,1, 1,21, 0, 7, 0.00,60.00,WinterDesignDay
488,21.70078030776413
528,21.701028817075377
568,21.70293635577334
2,1, 1,21, 0, 8, 0.00,60.00,WinterDesignDay
8,-16.3
10,665532890.5812452
925,1528486048.3717063
2,1, 1,21, 0, 8, 0.00,60.00,WinterDesignDay
488,21.700733069435054
528,21.700977416072246
568,21.702854045132253
2,1, 1,21, 0, 9, 0.00,60.00,WinterDesignDay
8,-16.3
10,784878817.2840376
925,1571648600.3382855
2,1, 1,21, 0, 9, 0.00,60.00,WinterDesignDay
488,21.700900752943796
528,21.701119677052938
568,21.702987265575346
2,1, 1,21, 0,10, 0.00,60.00,WinterDesignDay
8,-16.3
10,571365654.0218713
925,1583545628.5121537
2,1, 1,21, 0,10, 0.00,60.00,WinterDesignDay
488,21.700972186848025
528,21.701200231420679
568,21.703083123056908
2,1, 1,21, 0,11, 0.00,60.00,WinterDesignDay
8,-16.3
10,720592360.6988363
925,1580590866.493829
2,1, 1,21, 0,11, 0.00,60.00,WinterDesignDay
488,21.700937922616828
528,21.701194387611826
568,21.703098715377
2,1, 1,21, 0,12, 0.00,60.00,WinterDesignDay
8,-16.3
10,623712638.973236
925,1579612716.7994986
2,1, 1,21, 0,12, 0.00,60.00,WinterDesignDay
488,21.70089357299359
528,21.70117199467766
568,21.703091696157278
2,1, 1,21, 0,13, 0.00,60.00,WinterDesignDay
8,-16.3
10,373999104.76257589
925,1582242028.5300804
2,1, 1,21, 0,13, 0.00,60.00,WinterDesignDay
488,21.700870547330017
528,21.701162598632128
568,21.703093319338774
2,1, 1,21, 0,14, 0.00,60.00,WinterDesignDay
8,-16.3
10,558174019.5200099
925,1588637801.065038
2,1, 1,21, 0,14, 0.00,60.00,WinterDesignDay
488,21.700874870535828
528,21.70117478353196
568,21.703115678304909
2,1, 1,21, 0,15, 0.00,60.00,WinterDesignDay
8,-16.3
10,554053464.5710685
925,1591333208.8007999
2,1, 1,21, 0,15, 0.00,60.00,WinterDesignDay
488,21.700871307750167
528,21.70118061764232
568,21.703132261443704
2,1, 1,21, 0,16, 0.00,60.00,WinterDesignDay
8,-16.3
10,571945071.9415405
925,1582375706.8622766
2,1, 1,21, 0,16, 0.00,60.00,WinterDesignDay
488,21.700816412734484
528,21.70114090728267
568,21.703094200944379
2,1, 1,21, 0,17, 0.00,60.00,WinterDesignDay
8,-16.3
10,624351450.9641479
925,1545611284.251019
2,1, 1,21, 0,17, 0.00,60.00,WinterDesignDay
488,21.70065157327213
528,21.700990771883388
568,21.702919197440747
2,1, 1,21, 0,18, 0.00,60.00,WinterDesignDay
8,-16.3
10,764029069.1622471
925,1479707309.956142
2,1, 1,21, 0,18, 0.00,60.00,WinterDesignDay
488,21.7008413683977
528,21.700749470789498
568,21.70260370681177
2,1, 1,21, 0,19, 0.00,60.00,WinterDesignDay
8,-16.3
10,788890256.2601521
925,1439151013.5806144
2,1, 1,21, 0,19, 0.00,60.00,WinterDesignDay
488,21.700681380703217
528,21.700586969936695
568,21.702347429329174
2,1, 1,21, 0,20, 0.00,60.00,WinterDesignDay
8,-16.3
10,987280968.6938894
925,1441317767.0939098
2,1, 1,21, 0,20, 0.00,60.00,WinterDesignDay
488,21.700674193038883
528,21.700554152557737
568,21.70225724907616
2,1, 1,21, 0,21, 0.00,60.00,WinterDesignDay
8,-16.3
10,773537899.3428054
925,1443715479.0838924
2,1, 1,21, 0,21, 0.00,60.00,WinterDesignDay
488,21.700703367394288
528,21.70056082360808
568,21.702238318758157
2,1, 1,21, 0,22, 0.00,60.00,WinterDesignDay
8,-16.3
10,729772967.9693686
925,1450459226.039376
2,1, 1,21, 0,22, 0.00,60.00,WinterDesignDay
488,21.70075012549864
528,21.70058229620855
568,21.702271179517106
2,1, 1,21, 0,23, 0.00,60.00,WinterDesignDay
8,-16.3
10,663437880.8509141
925,1489873249.7527006
2,1, 1,21, 0,23, 0.00,60.00,WinterDesignDay
488,21.700976264599963
528,21.700689265774444
568,21.702435170857865
2,1, 1,21, 0,24, 0.00,60.00,WinterDesignDay
8,-16.3
10,417708282.99624755
925,1525153178.6535946
2,1, 1,21, 0,24, 0.00,60.00,WinterDesignDay
488,21.700699285056108
528,21.700828869772388
568,21.702645740079935
3,1, 1,21, 0,WinterDesignDay
489,8.11071905954646,7.028123348760406,17,60,9.041690676173907, 7,60
529,7.48670201144564,6.729127444078797,17,60,8.149145950633562, 7,60
569,6.15717295549534,5.903432972830121,17,60,6.368432384646959, 7,60
4,1, 1
7,-16.300000000000009,-16.3,21, 1,60,-16.3,21, 1,60
End of Data
 Number of Records Written=         444
