Program Version,EnergyPlus, Version 9.1.0-08d2e308bb, YMD=2019.12.31 13:04
1,5,Environment Title[],Latitude[deg],Longitude[deg],Time Zone[],Elevation[m]
2,8,Day of Simulation[],Month[],Day of Month[],DST Indicator[1=yes 0=no],Hour[],StartMinute[],EndMinute[],DayType
3,5,Cumulative Day of Simulation[],Month[],Day of Month[],DST Indicator[1=yes 0=no],DayType  ! When Daily Report Variables Requested
4,2,Cumulative Days of Simulation[],Month[]  ! When Monthly Report Variables Requested
5,1,Cumulative Days of Simulation[] ! When Run Period Report Variables Requested
6,1,Calendar Year of Simulation[] ! When Annual Report Variables Requested
7,9,Environment,Site Outdoor Air Drybulb Temperature [C] !Monthly [Value,Min,Day,Hour,Minute,Max,Day,Hour,Minute]
8,1,Environment,Site Outdoor Air Wetbulb Temperature [C] !TimeStep
501,7,BUILDING STORY 1 THERMALZONE,Zone Air Relative Humidity [%] !Daily [Value,Min,Hour,Minute,Max,Hour,Minute]
540,7,BUILDING STORY 2 THERMALZONE,Zone Air Relative Humidity [%] !Daily [Value,Min,Hour,Minute,Max,Hour,Minute]
579,7,BUILDING STORY 3 THERMALZONE,Zone Air Relative Humidity [%] !Daily [Value,Min,Hour,Minute,Max,Hour,Minute]
1122,1,Heating:Electricity [J] !Hourly
1097,1,Heating:Gas [J] !Hourly
958,1,Cooling:Electricity [J] !Hourly
47,1,InteriorLights:Electricity [J] !Hourly
894,1,ExteriorLights:Electricity [J] !Hourly
139,1,InteriorEquipment:Electricity [J] !Hourly
867,1,Fans:Electricity [J] !Hourly
1147,1,Pumps:Electricity [J] !Hourly
1009,1,HeatRejection:Electricity [J] !Hourly
1034,1,HeatRejection:Water [m3] !Hourly
280,1,WaterSystems:Electricity [J] !Hourly
331,1,WaterSystems:Water [m3] !Hourly
11,1,Electricity:Facility [J] !Hourly
1073,1,Gas:Facility [J] !Hourly
307,1,Water:Facility [m3] !Hourly
10,1,Electricity:Facility [J] !TimeStep
1072,1,Gas:Facility [J] !TimeStep
End of Data Dictionary
1,RUN PERIOD 1,  42.93, -78.73,  -5.00, 215.00
2,1, 1, 1, 0, 1, 0.00,60.00,Monday
8,-1.1802458087361237
10,1755062920.3828655
1072,2694723644.482395
2,1, 1, 1, 0, 1, 0.00,60.00,Monday
11,1755062920.3828655
47,123350546.03651601
139,26943463.980672465
280,0.0
307,1.0867995559498618
331,0.0
867,176044986.40580029
894,469272747.1144216
958,789383913.9784185
1009,16614494.88431969
1034,1.0867995559498618
1073,2694723644.482395
1097,2694723644.482395
1122,0.0
1147,153452767.98271648
2,1, 1, 1, 0, 2, 0.00,60.00,Monday
8,-1.1802458087361237
10,619566757.1316102
1072,0.0
2,1, 1, 1, 0, 2, 0.00,60.00,Monday
11,619566757.1316102
47,123350546.03651601
139,26943463.980672465
280,0.0
307,0.0
331,0.0
867,0.0
894,469272747.1144216
958,0.0
1009,0.0
1034,0.0
1073,0.0
1097,0.0
1122,0.0
1147,0.0
2,1, 1, 1, 0, 3, 0.00,60.00,Monday
8,-1.87387394903547
10,619566757.1316102
1072,0.0
2,1, 1, 1, 0, 3, 0.00,60.00,Monday
11,619566757.1316102
47,123350546.03651601
139,26943463.980672465
280,0.0
307,0.0
331,0.0
867,0.0
894,469272747.1144216
958,0.0
1009,0.0
1034,0.0
1073,0.0
1097,0.0
1122,0.0
1147,0.0
2,1, 1, 1, 0, 4, 0.00,60.00,Monday
8,-1.5103272887722317
10,619566757.1316102
1072,0.0
2,1, 1, 1, 0, 4, 0.00,60.00,Monday
11,619566757.1316102
47,123350546.03651601
139,26943463.980672465
280,0.0
307,0.0
331,0.0
867,0.0
894,469272747.1144216
958,0.0
1009,0.0
1034,0.0
1073,0.0
1097,0.0
1122,0.0
1147,0.0
2,1, 1, 1, 0, 5, 0.00,60.00,Monday
8,-1.665952381653312
10,619566757.1316102
1072,0.0
2,1, 1, 1, 0, 5, 0.00,60.00,Monday
11,619566757.1316102
47,123350546.03651601
139,26943463.980672465
280,0.0
307,0.0
331,0.0
867,0.0
894,469272747.1144216
958,0.0
1009,0.0
1034,0.0
1073,0.0
1097,0.0
1122,0.0
1147,0.0
2,1, 1, 1, 0, 6, 0.00,60.00,Monday
8,-1.3944780310032846
10,619566757.1316102
1072,0.0
2,1, 1, 1, 0, 6, 0.00,60.00,Monday
11,619566757.1316102
47,123350546.03651601
139,26943463.980672465
280,0.0
307,0.0
331,0.0
867,0.0
894,469272747.1144216
958,0.0
1009,0.0
1034,0.0
1073,0.0
1097,0.0
1122,0.0
1147,0.0
2,1, 1, 1, 0, 7, 0.00,60.00,Monday
8,-1.1805889590406258
10,632284645.6356032
1072,0.0
2,1, 1, 1, 0, 7, 0.00,60.00,Monday
11,632284645.6356032
47,123350546.03651601
139,26943463.980672465
280,0.0
307,0.0
331,0.0
867,0.0
894,481990635.61841478
958,0.0
1009,0.0
1034,0.0
1073,0.0
1097,0.0
1122,0.0
1147,0.0
2,1, 1, 1, 0, 8, 0.00,60.00,Monday
8,-1.3944780310032846
10,644939063.087335
1072,0.0
2,1, 1, 1, 0, 8, 0.00,60.00,Monday
11,644939063.087335
47,123350546.03651601
139,39597881.432386528
280,0.0
307,0.011447085234724835
331,0.011447085234724835
867,0.0
894,481990635.61841478
958,0.0
1009,0.0
1034,0.0
1073,0.0
1097,0.0
1122,0.0
1147,0.00001779281904192756
2,1, 1, 1, 0, 9, 0.00,60.00,Monday
8,-1.665952381653312
10,1967334716.9248706
1072,5099419304.410813
2,1, 1, 1, 0, 9, 0.00,60.00,Monday
11,1967334716.9248706
47,407519892.70767107
139,112722159.76955985
280,0.0
307,1.355408075551521
331,0.05437365486494295
867,282494466.6021409
894,0.0
958,958004062.2939961
1009,19794796.87707458
1034,1.301034420686578
1073,5099419304.410813
1097,5099419304.410813
1122,0.0
1147,186799338.67442835
2,1, 1, 1, 0,10, 0.00,60.00,Monday
8,-1.1802458087361237
10,2414759127.6342399
1072,547606018.4063284
2,1, 1, 1, 0,10, 0.00,60.00,Monday
11,2414759127.6342399
47,1517674807.0363155
139,332299078.0490012
280,0.0
307,0.746207205395153
331,0.1935783878086504
867,72442456.91469436
894,0.0
958,395928614.7243279
1009,8536488.330024513
1034,0.5526288175865026
1073,547606018.4063284
1097,547606018.4063284
1122,0.0
1147,87877682.57987565
2,1, 1, 1, 0,11, 0.00,60.00,Monday
8,-0.9849379844004382
10,4190274104.875644
1072,2692698676.6299359
2,1, 1, 1, 0,11, 0.00,60.00,Monday
11,4190274104.875644
47,2343660374.6938045
139,537347366.5482686
280,0.0
307,1.6289712342678722
331,0.2987825521087406
867,205385817.47343365
894,0.0
958,906508706.8293061
1009,19172953.395409354
1034,1.3301886821591316
1073,2692698676.6299359
1097,2692698676.6299359
1122,0.0
1147,178198885.93542213
2,1, 1, 1, 0,12, 0.00,60.00,Monday
8,-0.818433687998716
10,3184899177.9962379
1072,2837362941.6761147
2,1, 1, 1, 0,12, 0.00,60.00,Monday
11,3184899177.9962379
47,2343660374.6938045
139,509402872.05032208
280,67378196.73077517
307,0.4996077073350361
331,0.4407809189490177
867,221993562.95809598
894,0.0
958,8099304.763914625
1009,617772.3277813635
1034,0.05882678838601838
1073,2837362941.6761147
1097,2837362941.6761147
1122,0.0
1147,33747094.47154444
2,1, 1, 1, 0,13, 0.00,60.00,Monday
8,-0.598194072481827
10,3871969562.8694336
1072,4737626003.244862
2,1, 1, 1, 0,13, 0.00,60.00,Monday
11,3871969562.8694336
47,2343660374.6938045
139,556467283.8363369
280,202047462.07211174
307,0.9302464621336183
331,0.6028116849500633
867,427379380.43152967
894,0.0
958,157081518.41121084
1009,4085927.499091074
1034,0.32743477718355498
1073,4737626003.244862
1097,4737626003.244862
1122,0.0
1147,181247615.92534936
2,1, 1, 1, 0,14, 0.00,60.00,Monday
8,-0.2717280594017997
10,3756264254.9044477
1072,4316717445.5477089
2,1, 1, 1, 0,14, 0.00,60.00,Monday
11,3756264254.9044477
47,2343660374.6938045
139,528522789.3383907
280,68384957.08742906
307,1.1403955245288278
331,0.7054947650020296
867,427379380.43152967
894,0.0
958,202895836.8570337
1009,5172954.857803025
1034,0.4349007595267983
1073,4316717445.5477089
1097,4316717445.5477089
1122,0.0
1147,180247961.63845808
2,1, 1, 1, 0,15, 0.00,60.00,Monday
8,-0.04571975547003023
10,3869343378.9828789
1072,4411371181.729141
2,1, 1, 1, 0,15, 0.00,60.00,Monday
11,3869343378.9828789
47,2343660374.6938045
139,499842913.4062879
280,203345087.30973388
307,1.0898322552338507
331,0.691254045870735
867,427379380.43152967
894,0.0
958,209422564.9475803
1009,5361911.832960511
1034,0.3985782093631156
1073,4411371181.729141
1097,4411371181.729141
1122,0.0
1147,180331146.36098213
2,1, 1, 1, 0,16, 0.00,60.00,Monday
8,-0.04535544602759805
10,3751161724.947105
1072,4525205289.729158
2,1, 1, 1, 0,16, 0.00,60.00,Monday
11,3751161724.947105
47,2343660374.6938045
139,512344397.7869481
280,67806899.4917591
307,0.9870476687128871
331,0.583256247674075
867,427379380.43152967
894,0.0
958,213907845.58442367
1009,5462383.725927982
1034,0.403791421038812
1073,4525205289.729158
1097,4525205289.729158
1122,0.0
1147,180600443.232713
2,1, 1, 1, 0,17, 0.00,60.00,Monday
8,-0.04535544602759805
10,3930065160.126585
1072,4517267895.452445
2,1, 1, 1, 0,17, 0.00,60.00,Monday
11,3930065160.126585
47,2343660374.6938045
139,555731902.4021803
280,201087744.49984075
307,0.9185246421763738
331,0.5120526520176021
867,427379380.43152967
894,0.0
958,216140771.4958238
1009,5512374.309815492
1034,0.4064719901587716
1073,4517267895.452445
1097,4517267895.452445
1122,0.0
1147,180552612.2935911
2,1, 1, 1, 0,18, 0.00,60.00,Monday
8,-0.4337098548147795
10,4179866275.011783
1072,4466737563.253436
2,1, 1, 1, 0,18, 0.00,60.00,Monday
11,4179866275.011783
47,2343660374.6938045
139,544701180.8898331
280,0.0
307,0.8778303440765003
331,0.5348786850749403
867,427379380.43152967
894,481990635.61841478
958,196605681.1752779
1009,5025792.230819419
1034,0.34295165900156007
1073,4466737563.253436
1097,4466737563.253436
1122,0.0
1147,180503229.97210519
2,1, 1, 1, 0,19, 0.00,60.00,Monday
8,-1.0213911744465183
10,4407495151.274494
1072,5020490382.113652
2,1, 1, 1, 0,19, 0.00,60.00,Monday
11,4407495151.274494
47,2343660374.6938045
139,524110500.7334517
280,268976172.93718495
307,0.84879789003268
331,0.5319487763541477
867,427379380.43152967
894,481990635.61841478
958,175182668.35654033
1009,4475515.48971185
1034,0.3168491136785323
1073,5020490382.113652
1097,5020490382.113652
1122,0.0
1147,181719903.01385815
2,1, 1, 1, 0,20, 0.00,60.00,Monday
8,-1.1809288569695527
10,4152081617.998338
1072,4972679611.614218
2,1, 1, 1, 0,20, 0.00,60.00,Monday
11,4152081617.998338
47,2343660374.6938045
139,538082747.982425
280,0.0
307,0.8399435219030564
331,0.49222466509316806
867,427379380.43152967
894,481990635.61841478
958,174898961.05527113
1009,4440818.989587179
1034,0.34771885680988837
1073,4972679611.614218
1097,4972679611.614218
1122,0.0
1147,181628699.22730676
2,1, 1, 1, 0,21, 0.00,60.00,Monday
8,-1.5108130242800387
10,3046101493.1070086
1072,2315759311.1724398
2,1, 1, 1, 0,21, 0.00,60.00,Monday
11,3046101493.1070086
47,1604820073.3488007
139,348477469.6004438
280,67059315.83708274
307,0.6821198837646951
331,0.38688422596885499
867,205385817.47343368
894,481990635.61841478
958,157767819.78246445
1009,4039087.4583414068
1034,0.2952356577958401
1073,2315759311.1724398
1097,2315759311.1724398
1122,0.0
1147,176561273.98802666
2,1, 1, 1, 0,22, 0.00,60.00,Monday
8,-1.6662902470607773
10,2099715540.6172717
1072,2615554713.2363898
2,1, 1, 1, 0,22, 0.00,60.00,Monday
11,2099715540.6172717
47,865979772.0037973
139,141453185.8985302
280,67008805.68224563
307,0.4175907647666991
331,0.09443845318647989
867,205385817.47343365
894,481990635.61841478
958,156909236.58554564
1009,3996743.203756028
1034,0.3231523115802192
1073,2615554713.2363898
1097,2615554713.2363898
1122,0.0
1147,176991344.1515479
2,1, 1, 1, 0,23, 0.00,60.00,Monday
8,-1.874803504688023
10,2056872649.711904
1072,2889685323.569574
2,1, 1, 1, 0,23, 0.00,60.00,Monday
11,2056872649.711904
47,865979772.0037973
139,165138324.86259143
280,0.0
307,0.4280611881249046
331,0.0658207400996678
867,205385817.47343365
894,481990635.61841478
958,156756298.36700524
1009,3970019.1333076569
1034,0.3622404480252368
1073,2889685323.569574
1097,2889685323.569574
1122,0.0
1147,177651782.25335399
2,1, 1, 1, 0,24, 0.00,60.00,Monday
8,-1.665952381653312
10,2137035741.6688872
1072,2601516430.74938
2,1, 1, 1, 0,24, 0.00,60.00,Monday
11,2137035741.6688872
47,494665159.02015677
139,87566257.93718536
280,0.0
307,1.0258658815731408
331,0.03720302701285571
867,171154847.89452804
894,481990635.61841478
958,737516756.0619322
1009,15114121.940793829
1034,0.9886628545602851
1073,2601516430.74938
1097,2601516430.74938
1122,0.0
1147,149027963.19587589
3,1, 1, 1, 0,Monday
501,25.554800371499828,21.850401824066389,11,60,27.921781612406617, 8,60
540,21.93914858206772,19.38925383533024,10,30,25.0929922996017,18,60
579,23.631718772016567,20.406825578499597, 9,33,29.86448987694294, 8,60
2,2, 1, 2, 0, 1, 0.00,60.00,Tuesday
8,-2.450886200756528
10,619566757.1316102
1072,0.0
2,2, 1, 2, 0, 1, 0.00,60.00,Tuesday
11,619566757.1316102
47,123350546.03651601
139,26943463.980672465
280,0.0
307,0.0
331,0.0
867,0.0
894,469272747.1144216
958,0.0
1009,0.0
1034,0.0
1073,0.0
1097,0.0
1122,0.0
1147,0.0
2,2, 1, 2, 0, 2, 0.00,60.00,Tuesday
8,-2.248902511226617
10,619566757.1316102
1072,0.0
2,2, 1, 2, 0, 2, 0.00,60.00,Tuesday
11,619566757.1316102
47,123350546.03651601
139,26943463.980672465
280,0.0
307,0.0
331,0.0
867,0.0
894,469272747.1144216
958,0.0
1009,0.0
1034,0.0
1073,0.0
1097,0.0
1122,0.0
1147,0.0
2,2, 1, 2, 0, 3, 0.00,60.00,Tuesday
8,-2.248902511226617
10,619566757.1316102
1072,0.0
2,2, 1, 2, 0, 3, 0.00,60.00,Tuesday
11,619566757.1316102
47,123350546.03651601
139,26943463.980672465
280,0.0
307,0.0
331,0.0
867,0.0
894,469272747.1144216
958,0.0
1009,0.0
1034,0.0
1073,0.0
1097,0.0
1122,0.0
1147,0.0
2,2, 1, 2, 0, 4, 0.00,60.00,Tuesday
8,-1.665952381653312
10,822320064.1396198
1072,252820517.2945399
2,2, 1, 2, 0, 4, 0.00,60.00,Tuesday
11,822320064.1396198
47,123350546.03651601
139,26943463.980672465
280,0.0
307,0.14629461872831468
331,0.0
867,68461939.15781121
894,469272747.1144216
958,74114452.94480816
1009,2046602.685947178
1034,0.14629461872831468
1073,252820517.2945399
1097,252820517.2945399
1122,0.0
1147,58130312.21944316
2,2, 1, 2, 0, 5, 0.00,60.00,Tuesday
8,-2.8216230582487005
10,619566757.1316102
1072,0.0
2,2, 1, 2, 0, 5, 0.00,60.00,Tuesday
11,619566757.1316102
47,123350546.03651601
139,26943463.980672465
280,0.0
307,0.0
331,0.0
867,0.0
894,469272747.1144216
958,0.0
1009,0.0
1034,0.0
1073,0.0
1097,0.0
1122,0.0
1147,0.0
2,2, 1, 2, 0, 6, 0.00,60.00,Tuesday
8,-1.665952381653312
10,1326404240.0882917
1072,1249102269.8556765
2,2, 1, 2, 0, 6, 0.00,60.00,Tuesday
11,1326404240.0882917
47,123350546.03651601
139,26943463.980672465
280,0.0
307,0.5052493664681914
331,0.0
867,205385817.47343365
894,469272747.1144216
958,319212960.96461406
1009,7346077.616500299
1034,0.5052493664681914
1073,1249102269.8556765
1097,1249102269.8556765
1122,0.0
1147,174892626.90213353
2,2, 1, 2, 0, 7, 0.00,60.00,Tuesday
8,-1.665952381653312
10,632284645.6356032
1072,0.0
2,2, 1, 2, 0, 7, 0.00,60.00,Tuesday
11,632284645.6356032
47,123350546.03651601
139,26943463.980672465
280,0.0
307,0.0
331,0.0
867,0.0
894,481990635.61841478
958,0.0
1009,0.0
1034,0.0
1073,0.0
1097,0.0
1122,0.0
1147,0.0
2,2, 1, 2, 0, 8, 0.00,60.00,Tuesday
8,-1.66561355779768
10,1343487341.222163
1072,1786856017.5329033
2,2, 1, 2, 0, 8, 0.00,60.00,Tuesday
11,1343487341.222163
47,123350546.03651601
139,39597881.432386528
280,0.0
307,0.508895044807143
331,0.011447085234724835
867,205385817.47343365
894,481990635.61841478
958,310515266.0150643
1009,7187527.774137525
1034,0.49744795957241819
1073,1786856017.5329033
1097,1786856017.5329033
1122,0.0
1147,175459666.87221015
2,2, 1, 2, 0, 9, 0.00,60.00,Tuesday
8,-1.66561355779768
10,1105976008.775518
1072,1941217501.4311538
2,2, 1, 2, 0, 9, 0.00,60.00,Tuesday
11,1105976008.775518
47,407519892.70767107
139,112722159.76955985
280,0.0
307,0.5672705229788155
331,0.05437365486494296
867,77108649.12870725
894,0.0
958,323564789.49114397
1009,7483508.153128159
1034,0.5128968681138726
1073,1941217501.4311538
1097,1941217501.4311538
1122,0.0
1147,177577009.52530772
2,2, 1, 2, 0,10, 0.00,60.00,Tuesday
8,-1.1802458087361237
10,3182557600.850734
1072,4465807012.067611
2,2, 1, 2, 0,10, 0.00,60.00,Tuesday
11,3182557600.850734
47,1517674807.0363155
139,332299078.0490012
280,0.0
307,1.3891555043015196
331,0.1935783878086504
867,261110784.33089084
894,0.0
958,867091605.2277842
1009,18190763.32020622
1034,1.1955771164928693
1073,4465807012.067611
1097,4465807012.067611
1122,0.0
1147,186190562.88653604
2,2, 1, 2, 0,11, 0.00,60.00,Tuesday
8,-1.1799047350000767
10,3012678456.230941
1072,0.0
2,2, 1, 2, 0,11, 0.00,60.00,Tuesday
11,3012678456.230941
47,2343660374.6938045
139,537347366.5482686
280,131670714.98840367
307,0.2987825521087406
331,0.2987825521087406
867,0.0
894,0.0
958,0.0
1009,0.0
1034,0.0
1073,0.0
1097,0.0
1122,0.0
1147,0.00046441248064184613
2,2, 1, 2, 0,12, 0.00,60.00,Tuesday
8,-0.817959937909318
10,4507194025.985809
1072,5423504254.684717
2,2, 1, 2, 0,12, 0.00,60.00,Tuesday
11,4507194025.985809
47,2343660374.6938045
139,509402872.05032208
280,134359125.66381724
307,1.7231776688058569
331,0.4407809189490177
867,427379380.43152967
894,0.0
958,889103089.8024619
1009,18993908.53495105
1034,1.2823967498568392
1073,5423504254.684717
1097,5423504254.684717
1122,0.0
1147,184295274.80892457
2,2, 1, 2, 0,13, 0.00,60.00,Tuesday
8,-0.9843616670581066
10,3860689974.5699617
1072,5098892985.796057
2,2, 1, 2, 0,13, 0.00,60.00,Tuesday
11,3860689974.5699617
47,2343660374.6938045
139,556467283.8363369
280,134668505.33307413
307,1.084590987620742
331,0.6028116849500633
867,427379380.43152967
894,0.0
958,210872081.579831
1009,5509825.64133977
1034,0.4817793026706786
1073,5098892985.796057
1097,5098892985.796057
1122,0.0
1147,182132523.05404676
2,2, 1, 2, 0,14, 0.00,60.00,Tuesday
8,-0.817959937909318
10,3818398934.8111898
1072,5018324462.173089
2,2, 1, 2, 0,14, 0.00,60.00,Tuesday
11,3818398934.8111898
47,2343660374.6938045
139,528522789.3383907
280,136781161.09985984
307,1.122292779695544
331,0.7054947650020296
867,427379380.43152967
894,0.0
958,195150651.94148759
1009,4931944.573912647
1034,0.4167980146935143
1073,5018324462.173089
1097,5018324462.173089
1122,0.0
1147,181972632.73220609
2,2, 1, 2, 0,15, 0.00,60.00,Tuesday
8,-0.5975033634303576
10,3787641731.504408
1072,4875528605.394975
2,2, 1, 2, 0,15, 0.00,60.00,Tuesday
11,3787641731.504408
47,2343660374.6938045
139,499842913.4062879
280,135034085.654445
307,1.0645152552706796
331,0.691254045870735
867,427379380.43152967
894,0.0
958,195248850.082749
1009,4965460.127514422
1034,0.3732612093999445
1073,4875528605.394975
1097,4875528605.394975
1122,0.0
1147,181510667.10807825
2,2, 1, 2, 0,16, 0.00,60.00,Tuesday
8,-0.5971565962370674
10,3801280670.843796
1072,4817014821.605411
2,2, 1, 2, 0,16, 0.00,60.00,Tuesday
11,3801280670.843796
47,2343660374.6938045
139,512344397.7869481
280,135865438.27159185
307,0.9569292502936802
331,0.583256247674075
867,427379380.43152967
894,0.0
958,195694174.7636678
1009,4975832.793690793
1034,0.3736730026196051
1073,4817014821.605411
1097,4817014821.605411
1122,0.0
1147,181361072.10256414
2,2, 1, 2, 0,17, 0.00,60.00,Tuesday
8,-0.5971565962370674
10,3842801835.62089
1072,4891586584.536805
2,2, 1, 2, 0,17, 0.00,60.00,Tuesday
11,3842801835.62089
47,2343660374.6938045
139,555731902.4021803
280,133499424.2965301
307,0.8861629863355955
331,0.5120526520176021
867,427379380.43152967
894,0.0
958,196073360.95465315
1009,4984097.5717194159
1034,0.3741103343179935
1073,4891586584.536805
1097,4891586584.536805
1122,0.0
1147,181473295.27047319
2,2, 1, 2, 0,18, 0.00,60.00,Tuesday
8,-1.1795657539051999
10,4255165802.5000798
1072,4820412547.077124
2,2, 1, 2, 0,18, 0.00,60.00,Tuesday
11,4255165802.5000798
47,2343660374.6938045
139,544701180.8898331
280,95325269.17140752
307,0.8841320024972726
331,0.5348786850749403
867,427379380.43152967
894,481990635.61841478
958,176238490.97961999
1009,4479416.811133584
1034,0.34925331742233237
1073,4820412547.077124
1097,4820412547.077124
1122,0.0
1147,181391053.9043377
2,2, 1, 2, 0,19, 0.00,60.00,Tuesday
8,-1.020404023167408
10,4178030647.111151
1072,4842461742.094312
2,2, 1, 2, 0,19, 0.00,60.00,Tuesday
11,4178030647.111151
47,2343660374.6938045
139,524110500.7334517
280,39978045.06998397
307,0.8479046513187456
331,0.5319487763541477
867,427379380.43152967
894,481990635.61841478
958,175068895.98740603
1009,4468664.748658732
1034,0.31595587496459789
1073,4842461742.094312
1097,4842461742.094312
1122,0.0
1147,181374149.82790298
2,2, 1, 2, 0,20, 0.00,60.00,Tuesday
8,-1.6649382965486524
10,4269093906.0696885
1072,5210098271.104793
2,2, 1, 2, 0,20, 0.00,60.00,Tuesday
11,4269093906.0696885
47,2343660374.6938045
139,538082747.982425
280,133243777.64965417
307,0.8172341296300114
331,0.49222466509316806
867,427379380.43152967
894,481990635.61841478
958,158477407.2905127
1009,4038355.402863951
1034,0.3250094645368433
1073,5210098271.104793
1097,5210098271.104793
1122,0.0
1147,182221227.00048466
2,2, 1, 2, 0,21, 0.00,60.00,Tuesday
8,-2.0970481657497048
10,3091622124.845509
1072,2286187334.654578
2,2, 1, 2, 0,21, 0.00,60.00,Tuesday
11,3091622124.845509
47,1604820073.3488007
139,348477469.6004438
280,134096649.8206132
307,0.6501044704116623
331,0.38688422596885499
867,205385817.47343368
894,481990635.61841478
958,136793366.65303023
1009,3535651.3118949795
1034,0.26322024444280736
1073,2286187334.654578
1097,2286187334.654578
1122,0.0
1147,176522461.01887775
2,2, 1, 2, 0,22, 0.00,60.00,Tuesday
8,-2.448595400822192
10,2011168246.1208246
1072,2789621557.2996838
2,2, 1, 2, 0,22, 0.00,60.00,Tuesday
11,2011168246.1208246
47,865979772.0037973
139,141453185.8985302
280,0.0
307,0.4228462794729615
331,0.09443845318647989
867,205385817.47343365
894,481990635.61841478
958,135535890.36021254
1009,3467948.6666838957
1034,0.3284078262864816
1073,2789621557.2996838
1097,2789621557.2996838
1122,0.0
1147,177354996.09975187
2,2, 1, 2, 0,23, 0.00,60.00,Tuesday
8,-3.0766921149082706
10,2017274604.2546876
1072,2657338789.6202938
2,2, 1, 2, 0,23, 0.00,60.00,Tuesday
11,2017274604.2546876
47,865979772.0037973
139,165138324.86259143
280,0.0
307,0.39673027705290167
331,0.0658207400996678
867,205385817.47343365
894,481990635.61841478
958,118552351.85021375
1009,3066694.7553956329
1034,0.33090953695323385
1073,2657338789.6202938
1097,2657338789.6202938
1122,0.0
1147,177161007.69084064
2,2, 1, 2, 0,24, 0.00,60.00,Tuesday
8,-3.0766921149082706
10,2082704464.2454828
1072,2418424152.6081945
2,2, 1, 2, 0,24, 0.00,60.00,Tuesday
11,2082704464.2454828
47,494665159.02015677
139,87566257.93718536
280,0.0
307,0.9901181561766307
331,0.037203027012855719
867,164308653.97874693
894,481990635.61841478
958,697597477.1715534
1009,13796074.58911281
1034,0.952915129163775
1073,2418424152.6081945
1097,2418424152.6081945
1122,0.0
1147,142780205.93031238
3,2, 1, 2, 0,Tuesday
501,25.14391549001712,21.83405675160266,11,60,28.016980636351958, 8,60
540,21.455948274840819,19.10066895688848,10,36,23.843553363132398,18,60
579,23.92989635999123,18.652853572113775,23,60,32.54316032622534, 9,60
2,3, 1, 3, 0, 1, 0.00,60.00,Wednesday
8,-3.8400849580777196
10,619566757.1316102
1072,0.0
2,3, 1, 3, 0, 1, 0.00,60.00,Wednesday
11,619566757.1316102
47,123350546.03651601
139,26943463.980672465
280,0.0
307,0.0
331,0.0
867,0.0
894,469272747.1144216
958,0.0
1009,0.0
1034,0.0
1073,0.0
1097,0.0
1122,0.0
1147,0.0
2,3, 1, 3, 0, 2, 0.00,60.00,Wednesday
8,-3.839424890680984
10,619566757.1316102
1072,0.0
2,3, 1, 3, 0, 2, 0.00,60.00,Wednesday
11,619566757.1316102
47,123350546.03651601
139,26943463.980672465
280,0.0
307,0.0
331,0.0
867,0.0
894,469272747.1144216
958,0.0
1009,0.0
1034,0.0
1073,0.0
1097,0.0
1122,0.0
1147,0.0
2,3, 1, 3, 0, 3, 0.00,60.00,Wednesday
8,-4.1712791770681749
10,619566757.1316102
1072,0.0
2,3, 1, 3, 0, 3, 0.00,60.00,Wednesday
11,619566757.1316102
47,123350546.03651601
139,26943463.980672465
280,0.0
307,0.0
331,0.0
867,0.0
894,469272747.1144216
958,0.0
1009,0.0
1034,0.0
1073,0.0
1097,0.0
1122,0.0
1147,0.0
2,3, 1, 3, 0, 4, 0.00,60.00,Wednesday
8,-4.310274787688259
10,1047521301.9625131
1072,651093967.6869178
2,3, 1, 3, 0, 4, 0.00,60.00,Wednesday
11,1047521301.9625131
47,123350546.03651601
139,26943463.980672465
280,0.0
307,0.35952517283253906
331,0.0
867,117363324.2705335
894,469272747.1144216
958,206058618.54678596
1009,4572650.035048472
1034,0.35952517283253906
1073,651093967.6869178
1097,651093967.6869178
1122,0.0
1147,99959951.97853498
2,3, 1, 3, 0, 5, 0.00,60.00,Wednesday
8,-5.011897641093955
10,619566757.1316102
1072,0.0
2,3, 1, 3, 0, 5, 0.00,60.00,Wednesday
11,619566757.1316102
47,123350546.03651601
139,26943463.980672465
280,0.0
307,0.0
331,0.0
867,0.0
894,469272747.1144216
958,0.0
1009,0.0
1034,0.0
1073,0.0
1097,0.0
1122,0.0
1147,0.0
2,3, 1, 3, 0, 6, 0.00,60.00,Wednesday
8,-5.348283325588144
10,1297993520.887871
1072,1756972604.4865218
2,3, 1, 3, 0, 6, 0.00,60.00,Wednesday
11,1297993520.887871
47,123350546.03651601
139,26943463.980672465
280,0.0
307,0.5079342428817919
331,0.0
867,205385817.4734336
894,469272747.1144216
958,291330930.44458046
1009,6216441.657591857
1034,0.5079342428817919
1073,1756972604.4865218
1097,1756972604.4865218
1122,0.0
1147,175493574.1806551
2,3, 1, 3, 0, 7, 0.00,60.00,Wednesday
8,-5.654568022820762
10,632284645.6356032
1072,0.0
2,3, 1, 3, 0, 7, 0.00,60.00,Wednesday
11,632284645.6356032
47,123350546.03651601
139,26943463.980672465
280,0.0
307,0.0
331,0.0
867,0.0
894,481990635.61841478
958,0.0
1009,0.0
1034,0.0
1073,0.0
1097,0.0
1122,0.0
1147,0.0
2,3, 1, 3, 0, 8, 0.00,60.00,Wednesday
8,-5.4788702207489179
10,1346950599.1629644
1072,2430600566.768262
2,3, 1, 3, 0, 8, 0.00,60.00,Wednesday
11,1346950599.1629644
47,123350546.03651601
139,39597881.432386528
280,0.0
307,0.5673273730542578
331,0.011447085234724835
867,205385817.47343365
894,481990635.61841478
958,313355478.18360689
1009,6581142.207838202
1034,0.555880287819533
1073,2430600566.768262
1097,2430600566.768262
1122,0.0
1147,176689098.21076853
2,3, 1, 3, 0, 9, 0.00,60.00,Wednesday
8,-5.78833505928885
10,1104820753.7172809
1072,1908756269.6178623
2,3, 1, 3, 0, 9, 0.00,60.00,Wednesday
11,1104820753.7172809
47,407519892.70767107
139,112722159.76955985
280,0.0
307,0.5560193003632018
331,0.054373654864942968
867,77108649.12870726
894,0.0
958,322963515.6807933
1009,6749061.559944214
1034,0.5016456454982589
1073,1908756269.6178623
1097,1908756269.6178623
1122,0.0
1147,177757474.87060518
2,3, 1, 3, 0,10, 0.00,60.00,Wednesday
8,-6.360779300234708
10,3164020529.999953
1072,4599912207.139523
2,3, 1, 3, 0,10, 0.00,60.00,Wednesday
11,3164020529.999953
47,1517674807.0363155
139,332299078.0490012
280,66170508.53367087
307,1.2410538020203166
331,0.1935783878086504
867,205385817.4734336
894,0.0
958,839794250.2215488
1009,15591144.945985873
1034,1.0474754142116663
1073,4599912207.139523
1097,4599912207.139523
1122,0.0
1147,187104923.73999677
2,3, 1, 3, 0,11, 0.00,60.00,Wednesday
8,-6.209417884049362
10,3430701226.6334555
1072,485600901.798432
2,3, 1, 3, 0,11, 0.00,60.00,Wednesday
11,3430701226.6334555
47,2343660374.6938045
139,537347366.5482686
280,0.0
307,0.8357132712489883
331,0.2987825521087406
867,72442456.91469436
894,0.0
958,382028131.2489896
1009,7353479.297290946
1034,0.5369307191402477
1073,485600901.798432
1097,485600901.798432
1122,0.0
1147,87869417.93040766
2,3, 1, 3, 0,12, 0.00,60.00,Wednesday
8,-6.0824279633693039
10,4558654609.438497
1072,7220480628.39806
2,3, 1, 3, 0,12, 0.00,60.00,Wednesday
11,4558654609.438497
47,2343660374.6938045
139,509402872.05032208
280,200544763.04617799
307,1.6001751635767288
331,0.4407809189490177
867,427379380.43152967
894,0.0
958,870600394.1129407
1009,16358068.693593694
1034,1.159394244627711
1073,7220480628.39806
1097,7220480628.39806
1122,0.0
1147,190708756.41012914
2,3, 1, 3, 0,13, 0.00,60.00,Wednesday
8,-6.550193446183367
10,3534592607.550128
1072,6729660360.714632
2,3, 1, 3, 0,13, 0.00,60.00,Wednesday
11,3534592607.550128
47,2343660374.6938045
139,556467283.8363369
280,0.0
307,0.9706303566265646
331,0.6028116849500633
867,427379380.43152967
894,0.0
958,18552662.91501387
1009,1207552.3583901695
1034,0.36781867167650136
1073,6729660360.714632
1097,6729660360.714632
1122,0.0
1147,187325353.31505377
2,3, 1, 3, 0,14, 0.00,60.00,Wednesday
8,-6.889542842120662
10,3585807580.128023
1072,6812673225.5467209
2,3, 1, 3, 0,14, 0.00,60.00,Wednesday
11,3585807580.128023
47,2343660374.6938045
139,528522789.3383907
280,271982541.57131507
307,0.7054947650020296
331,0.7054947650020296
867,427379380.43152967
894,0.0
958,0.0
1009,0.0
1034,0.0
1073,6812673225.5467209
1097,6812673225.5467209
1122,0.0
1147,14262494.092984342
2,3, 1, 3, 0,15, 0.00,60.00,Wednesday
8,-7.3508378156906419
10,3353235526.166564
1072,6849938450.8750309
2,3, 1, 3, 0,15, 0.00,60.00,Wednesday
11,3353235526.166564
47,2343660374.6938045
139,499842913.4062879
280,68289789.45075222
307,0.691254045870735
331,0.691254045870735
867,427379380.43152967
894,0.0
958,0.0
1009,0.0
1034,0.0
1073,6849938450.8750309
1097,6849938450.8750309
1122,0.0
1147,14063068.184190246
2,3, 1, 3, 0,16, 0.00,60.00,Wednesday
8,-7.469274250048447
10,3498924808.561842
1072,6739523914.995564
2,3, 1, 3, 0,16, 0.00,60.00,Wednesday
11,3498924808.561842
47,2343660374.6938045
139,512344397.7869481
280,201843326.04701049
307,0.583256247674075
331,0.583256247674075
867,427379380.43152967
894,0.0
958,0.0
1009,0.0
1034,0.0
1073,6739523914.995564
1097,6739523914.995564
1122,0.0
1147,13697329.60255077
2,3, 1, 3, 0,17, 0.00,60.00,Wednesday
8,-7.904415557688695
10,3340710891.932539
1072,6922876297.3387789
2,3, 1, 3, 0,17, 0.00,60.00,Wednesday
11,3340710891.932539
47,2343660374.6938045
139,555731902.4021803
280,0.0
307,0.5120526520176021
331,0.5120526520176021
867,427379380.43152967
894,0.0
958,0.0
1009,0.0
1034,0.0
1073,6922876297.3387789
1097,6922876297.3387789
1122,0.0
1147,13939234.405025302
2,3, 1, 3, 0,18, 0.00,60.00,Wednesday
8,-8.367190283489729
10,4080527196.040737
1072,6883423009.179711
2,3, 1, 3, 0,18, 0.00,60.00,Wednesday
11,4080527196.040737
47,2343660374.6938045
139,544701180.8898331
280,269073288.3081651
307,0.5348786850749403
331,0.5348786850749403
867,427379380.4315295
894,481990635.61841478
958,0.0
1009,0.0
1034,0.0
1073,6883423009.179711
1097,6883423009.179711
1122,0.0
1147,13722336.098991393
2,3, 1, 3, 0,19, 0.00,60.00,Wednesday
8,-8.255558329956174
10,3791126574.5915749
1072,7015615185.361897
2,3, 1, 3, 0,19, 0.00,60.00,Wednesday
11,3791126574.5915749
47,2343660374.6938045
139,524110500.7334517
280,0.0
307,0.5319487763541477
331,0.5319487763541477
867,427379380.43152967
894,481990635.61841478
958,0.0
1009,0.0
1034,0.0
1073,7015615185.361897
1097,7015615185.361897
1122,0.0
1147,13985683.114375776
2,3, 1, 3, 0,20, 0.00,60.00,Wednesday
8,-8.816054925650735
10,4017995935.4903767
1072,6897385489.377399
2,3, 1, 3, 0,20, 0.00,60.00,Wednesday
11,4017995935.4903767
47,2343660374.6938045