Program Version,EnergyPlus, Version 9.1.0-08d2e308bb, YMD=2019.12.31 12:50
1,5,Environment Title[],Latitude[deg],Longitude[deg],Time Zone[],Elevation[m]
2,8,Day of Simulation[],Month[],Day of Month[],DST Indicator[1=yes 0=no],Hour[],StartMinute[],EndMinute[],DayType
3,5,Cumulative Day of Simulation[],Month[],Day of Month[],DST Indicator[1=yes 0=no],DayType  ! When Daily Report Variables Requested
4,2,Cumulative Days of Simulation[],Month[]  ! When Monthly Report Variables Requested
5,1,Cumulative Days of Simulation[] ! When Run Period Report Variables Requested
6,1,Calendar Year of Simulation[] ! When Annual Report Variables Requested
7,9,Environment,Site Outdoor Air Drybulb Temperature [C] !Monthly [Value,Min,Day,Hour,Minute,Max,Day,Hour,Minute]
8,1,Environment,Site Outdoor Air Wetbulb Temperature [C] !TimeStep
488,7,BUILDING STORY 1 THERMALZONE,Zone Air Relative Humidity [%] !Daily [Value,Min,Hour,Minute,Max,Hour,Minute]
527,7,BUILDING STORY 2 THERMALZONE,Zone Air Relative Humidity [%] !Daily [Value,Min,Hour,Minute,Max,Hour,Minute]
566,7,BUILDING STORY 3 THERMALZONE,Zone Air Relative Humidity [%] !Daily [Value,Min,Hour,Minute,Max,Hour,Minute]
972,1,Heating:Electricity [J] !Hourly
947,1,Heating:Gas [J] !Hourly
826,1,Cooling:Electricity [J] !Hourly
47,1,InteriorLights:Electricity [J] !Hourly
843,1,ExteriorLights:Electricity [J] !Hourly
139,1,InteriorEquipment:Electricity [J] !Hourly
732,1,Fans:Electricity [J] !Hourly
997,1,Pumps:Electricity [J] !Hourly
279,1,WaterSystems:Electricity [J] !Hourly
330,1,WaterSystems:Water [m3] !Hourly
11,1,Electricity:Facility [J] !Hourly
923,1,Gas:Facility [J] !Hourly
306,1,Water:Facility [m3] !Hourly
10,1,Electricity:Facility [J] !TimeStep
922,1,Gas:Facility [J] !TimeStep
End of Data Dictionary
1,RUN PERIOD 1,  42.93, -78.73,  -5.00, 215.00
2,1, 1, 1, 0, 1, 0.00,60.00,Monday
8,-1.1802458087361237
10,103732861.22522578
922,192528602.33389525
2,1, 1, 1, 0, 1, 0.00,60.00,Monday
11,103732861.22522578
47,7778879.494886996
139,28345001.10708566
279,0.0
306,0.030561900579059044
330,0.030561900579059044
732,52034097.91615993
826,0.0
843,15373519.792114573
923,192528602.33389525
947,192528602.33389525
972,0.0
997,201362.91497862465
2,1, 1, 1, 0, 2, 0.00,60.00,Monday
8,-1.1802458087361237
10,101310405.83290106
922,223639120.0914418
2,1, 1, 1, 0, 2, 0.00,60.00,Monday
11,101310405.83290106
47,7778879.494886996
139,25883768.239533605
279,0.0
306,0.015280950289529522
330,0.015280950289529522
732,52034097.91615993
826,0.0
843,15373519.792114573
923,223639120.0914418
947,223639120.0914418
972,0.0
997,240140.39020598588
2,1, 1, 1, 0, 3, 0.00,60.00,Monday
8,-1.87387394903547
10,100042117.20432066
922,193747232.86315734
2,1, 1, 1, 0, 3, 0.00,60.00,Monday
11,100042117.20432066
47,7778879.494886996
139,24653151.805757576
279,0.0
306,0.0038202375723823806
330,0.0038202375723823806
732,52034097.91615993
826,0.0
843,15373519.792114573
923,193747232.86315734
947,193747232.86315734
972,0.0
997,202468.1954016066
2,1, 1, 1, 0, 4, 0.00,60.00,Monday
8,-1.5103272887722317
10,99351008.48620028
922,130690214.31594032
2,1, 1, 1, 0, 4, 0.00,60.00,Monday
11,99351008.48620028
47,7778879.494886996
139,24037843.588869566
279,0.0
306,0.0038202375723823806
330,0.0038202375723823806
732,52034097.91615993
826,0.0
843,15373519.792114573
923,130690214.31594032
947,130690214.31594032
972,0.0
997,126667.69416923495
2,1, 1, 1, 0, 5, 0.00,60.00,Monday
8,-1.665952381653312
10,102424587.23752547
922,186853239.44489489
2,1, 1, 1, 0, 5, 0.00,60.00,Monday
11,102424587.23752547
47,10790261.55519476
139,24037843.588869566
279,0.0
306,0.015280950289529522
330,0.015280950289529522
732,52034097.91615993
826,0.0
843,15373519.792114573
923,186853239.44489489
947,186853239.44489489
972,0.0
997,188864.38518664134
2,1, 1, 1, 0, 6, 0.00,60.00,Monday
8,-1.3944780310032846
10,110698240.16465384
922,122011247.90545309
2,1, 1, 1, 0, 6, 0.00,60.00,Monday
11,110698240.16465384
47,16060180.327056138
139,27114384.67330963
279,0.0
306,0.10314641445432428
330,0.10314641445432428
732,52034097.91615993
826,0.0
843,15373519.792114573
923,122011247.90545309
947,122011247.90545309
972,0.0
997,116057.45601357166
2,1, 1, 1, 0, 7, 0.00,60.00,Monday
8,-1.1805889590406258
10,226606150.7145291
922,152854432.90279678
2,1, 1, 1, 0, 7, 0.00,60.00,Monday
11,226606150.7145291
47,16813025.80886852
139,35540880.99285161
279,103353910.51495777
306,0.35910233180394376
330,0.35910233180394376
732,52034097.91615993
826,0.0
843,18716765.68359625
923,152854432.90279678
947,152854432.90279678
972,0.0
997,147469.79809509548
2,1, 1, 1, 0, 8, 0.00,60.00,Monday
8,-1.3944780310032846
10,183635827.05239634
922,162828068.0334784
2,1, 1, 1, 0, 8, 0.00,60.00,Monday
11,183635827.05239634
47,16060180.327056138
139,44672094.949032489
279,51993775.59198498
306,0.38202375723823797
330,0.38202375723823797
732,52034097.91615993
826,0.0
843,18716765.68359625
923,162828068.0334784
947,162828068.0334784
972,0.0
997,158912.58456657819
2,1, 1, 1, 0, 9, 0.00,60.00,Monday
8,-1.665952381653312
10,213389855.32911945
922,169409221.4097214
2,1, 1, 1, 0, 9, 0.00,60.00,Monday
11,213389855.32911945
47,13331504.988615539
139,44185447.643772918
279,103671491.6253105
306,0.3667428069487085
330,0.3667428069487085
732,52034097.91615993
826,0.0
843,0.0
923,169409221.4097214
947,169409221.4097214
972,0.0
997,167313.15526059629
2,1, 1, 1, 0,10, 0.00,60.00,Monday
8,-1.1802458087361237
10,158091770.8750058
922,141020425.4461068
2,1, 1, 1, 0,10, 0.00,60.00,Monday
11,158091770.8750058
47,11825813.891932542
139,43213927.34096669
279,50882547.887091498
306,0.3208999560801199
330,0.3208999560801199
732,52034097.91615993
826,0.0
843,0.0
923,141020425.4461068
947,141020425.4461068
972,0.0
997,135383.83885516579
2,1, 1, 1, 0,11, 0.00,60.00,Monday
8,-0.9849379844004382
10,158749736.185003
922,154028262.0232914
2,1, 1, 1, 0,11, 0.00,60.00,Monday
11,158749736.185003
47,11825813.891932542
139,44444543.77474271
279,50296618.460312698
306,0.29033805550106087
330,0.29033805550106087
732,52034097.91615993
826,0.0
843,0.0
923,154028262.0232914
947,154028262.0232914
972,0.0
997,148662.1418551251
2,1, 1, 1, 0,12, 0.00,60.00,Monday
8,-0.818433687998716
10,158980546.26295803
922,166859082.8287747
2,1, 1, 1, 0,12, 0.00,60.00,Monday
11,158980546.26295803
47,11825813.891932542
139,45741188.37604289
279,49215857.36767203
306,0.2330344919153252
330,0.2330344919153252
732,52034097.91615993
826,0.0
843,0.0
923,166859082.8287747
947,166859082.8287747
972,0.0
997,163588.71115064005
2,1, 1, 1, 0,13, 0.00,60.00,Monday
8,-0.598194072481827
10,157288396.28370197
922,128779695.61312576
2,1, 1, 1, 0,13, 0.00,60.00,Monday
11,157288396.28370197
47,11472863.415068545
139,45006583.550586689
279,48653601.777862567
306,0.20247259133626617
330,0.20247259133626617
732,52034097.91615993
826,0.0
843,0.0
923,128779695.61312576
947,128779695.61312576
972,0.0
997,121249.62402421099
2,1, 1, 1, 0,14, 0.00,60.00,Monday
8,-0.2717280594017997
10,154811339.32031439
922,126643933.22736946
2,1, 1, 1, 0,14, 0.00,60.00,Monday
11,154811339.32031439
47,11825813.891932542
139,42598619.12407866
279,48235355.40662683
306,0.17955116590197188
330,0.17955116590197188
732,52034097.91615993
826,0.0
843,0.0
923,126643933.22736946
947,126643933.22736946
972,0.0
997,117452.98151640248
2,1, 1, 1, 0,15, 0.00,60.00,Monday
8,-0.04571975547003023
10,153771805.2858708
922,118298581.62809013
2,1, 1, 1, 0,15, 0.00,60.00,Monday
11,153771805.2858708
47,11825813.891932542
139,41983310.90719065
279,47820314.42772432
306,0.15662974046767759
330,0.15662974046767759
732,52034097.91615993
826,0.0
843,0.0
923,118298581.62809013
947,118298581.62809013
972,0.0
997,108268.14286333566
2,1, 1, 1, 0,16, 0.00,60.00,Monday
8,-0.04535544602759805
10,159245526.74510075
922,146260707.8391257
2,1, 1, 1, 0,16, 0.00,60.00,Monday
11,159245526.74510075
47,14084350.603486157
139,44774567.350832838
279,48214648.136141408
306,0.17955116590197188
330,0.17955116590197188
732,52034097.91615993
826,0.0
843,0.0
923,146260707.8391257
947,146260707.8391257
972,0.0
997,137862.73848037167
2,1, 1, 1, 0,17, 0.00,60.00,Monday
8,-0.04535544602759805
10,173469580.88507519
922,144489414.37042053
2,1, 1, 1, 0,17, 0.00,60.00,Monday
11,173469580.88507519
47,19354269.242289299
139,53185198.669177968
279,48759039.58682035
306,0.21011306648103093
330,0.21011306648103093
732,52034097.91615993
826,0.0
843,0.0
923,144489414.37042053
947,144489414.37042053
972,0.0
997,136975.47062765179
2,1, 1, 1, 0,18, 0.00,60.00,Monday
8,-0.4337098548147795
10,207872580.38534326
922,143271127.07055975
2,1, 1, 1, 0,18, 0.00,60.00,Monday
11,207872580.38534326
47,21330098.96585928
139,65608614.308901477
279,50047313.10029459
306,0.27887734278391376
330,0.27887734278391376
732,52034097.91615993
826,0.0
843,18716765.68359625
923,143271127.07055975
947,143271127.07055975
972,0.0
997,135690.410531725
2,1, 1, 1, 0,19, 0.00,60.00,Monday
8,-1.0213911744465183
10,210754505.9961488
922,184555586.49428434
2,1, 1, 1, 0,19, 0.00,60.00,Monday
11,210754505.9961488
47,26600017.737720655
139,62186953.035926479
279,51032336.61592996
306,0.3285404312248847
330,0.3285404312248847
732,52034097.91615993
826,0.0
843,18716765.68359625
923,184555586.49428434
947,184555586.49428434
972,0.0
997,184335.00681555758
2,1, 1, 1, 0,20, 0.00,60.00,Monday
8,-1.1809288569695527
10,222468363.30497713
922,173157646.58936817
2,1, 1, 1, 0,20, 0.00,60.00,Monday
11,222468363.30497713
47,30364245.412899037
139,57879795.51771037
279,63300041.87717082
306,0.31325948093535518
330,0.31325948093535518
732,52034097.91615992
826,0.0
843,18716765.68359625
923,173157646.58936817
947,173157646.58936817
972,0.0
997,173416.897440724
2,1, 1, 1, 0,21, 0.00,60.00,Monday
8,-1.5108130242800387
10,246220704.08173467
922,155251947.90437488
2,1, 1, 1, 0,21, 0.00,60.00,Monday
11,246220704.08173467
47,30364245.412899037
139,56934113.75577298
279,88019766.49455926
306,0.2865178179286785
330,0.2865178179286785
732,52034097.91615993
826,0.0
843,18716765.68359625
923,155251947.90437488
947,155251947.90437488
972,0.0
997,151714.81874720803
2,1, 1, 1, 0,22, 0.00,60.00,Monday
8,-1.6662902470607773
10,195902663.73094995
922,175957856.63124378
2,1, 1, 1, 0,22, 0.00,60.00,Monday
11,195902663.73094995
47,22835790.062542283
139,52957329.782606247
279,49183713.04043684
306,0.2330344919153252
330,0.2330344919153252
732,52034097.91615993
826,0.0
843,18716765.68359625
923,175957856.63124378
947,175957856.63124378
972,0.0
997,174967.24560839922
2,1, 1, 1, 0,23, 0.00,60.00,Monday
8,-1.874803504688023
10,179269207.86948399
922,229579013.06415875
2,1, 1, 1, 0,23, 0.00,60.00,Monday
11,179269207.86948399
47,15307334.71218552
139,44343014.746174048
279,48621784.97123769
306,0.20247259133626617
330,0.20247259133626617
732,52034097.91615993
826,0.0
843,18716765.68359625
923,229579013.06415875
947,229579013.06415875
972,0.0
997,246209.84013057804
2,1, 1, 1, 0,24, 0.00,60.00,Monday
8,-1.665952381653312
10,117375823.24921888
922,224144788.51901103
2,1, 1, 1, 0,24, 0.00,60.00,Monday
11,117375823.24921888
47,10037416.073382378
139,36344007.926629859
279,0.0
306,0.110786889599089
330,0.110786889599089
732,52034097.91615993
826,0.0
843,18716765.68359625
923,224144788.51901103
947,224144788.51901103
972,0.0
997,243535.64945048875
3,1, 1, 1, 0,Monday
488,22.387436858219134,21.64172141438718,13,60,22.846470675091309, 7,60
527,21.93063075632105,21.46928064252539,13,60,22.25795053275941, 7,60
566,20.747721654264564,20.436728557156714,12,60,21.298741818720577,19,60
2,2, 1, 2, 0, 1, 0.00,60.00,Tuesday
8,-2.450886200756528
10,103748323.63761635
922,204583831.64495216
2,2, 1, 2, 0, 1, 0.00,60.00,Tuesday
11,103748323.63761635
47,7778879.494886996
139,28345001.10708566
279,0.0
306,0.030561900579059044
330,0.030561900579059044
732,52034097.91615993
826,0.0
843,15373519.792114573
923,204583831.64495216
947,204583831.64495216
972,0.0
997,216825.327369201
2,2, 1, 2, 0, 2, 0.00,60.00,Tuesday
8,-2.248902511226617
10,101409583.63959824
922,289735869.2916006
2,2, 1, 2, 0, 2, 0.00,60.00,Tuesday
11,101409583.63959824
47,7778879.494886996
139,25883768.239533605
279,0.0
306,0.015280950289529522
330,0.015280950289529522
732,52034097.91615992
826,0.0
843,15373519.792114573
923,289735869.2916006
947,289735869.2916006
972,0.0
997,339318.19690315049
2,2, 1, 2, 0, 3, 0.00,60.00,Tuesday
8,-2.248902511226617
10,100123672.64232712
922,248547908.55773036
2,2, 1, 2, 0, 3, 0.00,60.00,Tuesday
11,100123672.64232712
47,7778879.494886996
139,24653151.805757576
279,0.0
306,0.0038202375723823806
330,0.0038202375723823806
732,52034097.91615993
826,0.0
843,15373519.792114573
923,248547908.55773036
947,248547908.55773036
972,0.0
997,284023.63340806259
2,2, 1, 2, 0, 4, 0.00,60.00,Tuesday
8,-1.665952381653312
10,99501524.20056416
922,246069047.21192674
2,2, 1, 2, 0, 4, 0.00,60.00,Tuesday
11,99501524.20056416
47,7778879.494886996
139,24037843.588869566
279,0.0
306,0.0038202375723823806
330,0.0038202375723823806
732,52034097.91615993
826,0.0
843,15373519.792114573
923,246069047.21192674
947,246069047.21192674
972,0.0
997,277183.4085331134
2,2, 1, 2, 0, 5, 0.00,60.00,Tuesday
8,-2.8216230582487005
10,102503604.10853745
922,239909324.26218824
2,2, 1, 2, 0, 5, 0.00,60.00,Tuesday
11,102503604.10853745
47,10790261.55519476
139,24037843.588869566
279,0.0
306,0.015280950289529522
330,0.015280950289529522
732,52034097.91615993
826,0.0
843,15373519.792114573
923,239909324.26218824
947,239909324.26218824
972,0.0
997,267881.25619862726
2,2, 1, 2, 0, 6, 0.00,60.00,Tuesday
8,-1.665952381653312
10,157744520.70441816
922,228821387.6948229
2,2, 1, 2, 0, 6, 0.00,60.00,Tuesday
11,157744520.70441816
47,16060180.327056138
139,27114384.67330963
279,46910956.51861776
306,0.10314641445432428
330,0.10314641445432428
732,52034097.91615993
826,0.0
843,15373519.792114573
923,228821387.6948229
947,228821387.6948229
972,0.0
997,251381.4771601093
2,2, 1, 2, 0, 7, 0.00,60.00,Tuesday
8,-1.665952381653312
10,175030839.45680503
922,234068703.18432979
2,2, 1, 2, 0, 7, 0.00,60.00,Tuesday
11,175030839.45680503
47,16813025.80886852
139,35540880.99285161
279,51668420.57713563
306,0.35910233180394376
330,0.35910233180394376
732,52034097.91615993
826,0.0
843,18716765.68359625
923,234068703.18432979
947,234068703.18432979
972,0.0
997,257648.4781931023
2,2, 1, 2, 0, 8, 0.00,60.00,Tuesday
8,-1.66561355779768
10,235782560.54930607
922,216414390.54153664
2,2, 1, 2, 0, 8, 0.00,60.00,Tuesday
11,235782560.54930607
47,16060180.327056138
139,44672094.949032489
279,104066044.06513973
306,0.38202375723823797
330,0.38202375723823797
732,52034097.91615993
826,0.0
843,18716765.68359625
923,216414390.54153664
947,216414390.54153664
972,0.0
997,233377.60832155986
2,2, 1, 2, 0, 9, 0.00,60.00,Tuesday
8,-1.66561355779768
10,166366900.39145557
922,207577902.1394997
2,2, 1, 2, 0, 9, 0.00,60.00,Tuesday
11,166366900.39145557
47,13331504.988615539
139,44185447.643772918
279,56595765.8575007
306,0.3667428069487085
330,0.3667428069487085
732,52034097.91615993
826,0.0
843,0.0
923,207577902.1394997
947,207577902.1394997
972,0.0
997,220083.98540647175
2,2, 1, 2, 0,10, 0.00,60.00,Tuesday
8,-1.1802458087361237
10,204436897.89671273
922,207545737.70475454
2,2, 1, 2, 0,10, 0.00,60.00,Tuesday
11,204436897.89671273
47,11825813.891932542
139,43213927.34096669
279,97143811.46613173
306,0.3208999560801199
330,0.3208999560801199
732,52034097.91615993
826,0.0
843,0.0
923,207545737.70475454
947,207545737.70475454
972,0.0
997,219247.28152186704
2,2, 1, 2, 0,11, 0.00,60.00,Tuesday
8,-1.1799047350000767
10,158791894.86989657
922,193349871.6373209
2,2, 1, 2, 0,11, 0.00,60.00,Tuesday
11,158791894.86989657
47,11825813.891932542
139,44444543.77474271
279,50286758.45442401
306,0.29033805550106087
330,0.29033805550106087
732,52034097.91615993
826,0.0
843,0.0
923,193349871.6373209
947,193349871.6373209
972,0.0
997,200680.8326373655
2,2, 1, 2, 0,12, 0.00,60.00,Tuesday
8,-0.817959937909318
10,158964190.3563116
922,159610996.33911608
2,2, 1, 2, 0,12, 0.00,60.00,Tuesday
11,158964190.3563116
47,11825813.891932542
139,45741188.37604289
279,49204775.5460034
306,0.2330344919153252
330,0.2330344919153252
732,52034097.91615993
826,0.0
843,0.0
923,159610996.33911608
947,159610996.33911608
972,0.0
997,158314.6261728406
2,2, 1, 2, 0,13, 0.00,60.00,Tuesday
8,-0.9843616670581066
10,157309571.58675424
922,157908415.53119327
2,2, 1, 2, 0,13, 0.00,60.00,Tuesday
11,157309571.58675424
47,11472863.415068545
139,45006583.550586689
279,48641859.413960378
306,0.20247259133626617
330,0.20247259133626617
732,52034097.91615993
826,0.0
843,0.0
923,157908415.53119327
947,157908415.53119327
972,0.0
997,154167.290978705
2,2, 1, 2, 0,14, 0.00,60.00,Tuesday
8,-0.817959937909318
10,154850324.6991584
922,170771666.58954207
2,2, 1, 2, 0,14, 0.00,60.00,Tuesday
11,154850324.6991584
47,11825813.891932542
139,42598619.12407866
279,48223063.96559749
306,0.17955116590197188
330,0.17955116590197188
732,52034097.91615993
826,0.0
843,0.0
923,170771666.58954207
947,170771666.58954207
972,0.0
997,168729.80138977385
2,2, 1, 2, 0,15, 0.00,60.00,Tuesday
8,-0.5975033634303576
10,105988935.39379153
922,150462942.71890215
2,2, 1, 2, 0,15, 0.00,60.00,Tuesday
11,105988935.39379153
47,11825813.891932542
139,41983310.90719065
279,0.0
306,0.15662974046767759
330,0.15662974046767759
732,52034097.91615993
826,0.0
843,0.0
923,150462942.71890215
947,150462942.71890215
972,0.0
997,145712.6785084025
2,2, 1, 2, 0,16, 0.00,60.00,Tuesday
8,-0.5971565962370674
10,159289703.10739825
922,157629162.7089678
2,2, 1, 2, 0,16, 0.00,60.00,Tuesday
11,159289703.10739825
47,14084350.603486157
139,44774567.350832838
279,48243673.67112452
306,0.17955116590197188
330,0.17955116590197188
732,52034097.91615993
826,0.0
843,0.0
923,157629162.7089678
947,157629162.7089678
972,0.0
997,153013.5657947851
2,2, 1, 2, 0,17, 0.00,60.00,Tuesday
8,-0.5971565962370674
10,173528255.5761061
922,168048767.72398839
2,2, 1, 2, 0,17, 0.00,60.00,Tuesday
11,173528255.5761061
47,19354269.242289299
139,53185198.669177968
279,48789368.29616615
306,0.21011306648103093
330,0.21011306648103093
732,52034097.91615993
826,0.0
843,0.0
923,168048767.72398839
947,168048767.72398839
972,0.0
997,165321.4523127471
2,2, 1, 2, 0,18, 0.00,60.00,Tuesday
8,-1.1795657539051999
10,207933101.97774593
922,165820135.54720915
2,2, 1, 2, 0,18, 0.00,60.00,Tuesday
11,207933101.97774593
47,21330098.96585928
139,65608614.308901477
279,50080317.06665073
306,0.27887734278391376
330,0.27887734278391376
732,52034097.91615993
826,0.0
843,18716765.68359625
923,165820135.54720915
947,165820135.54720915
972,0.0
997,163208.03657827943
2,2, 1, 2, 0,19, 0.00,60.00,Tuesday
8,-1.020404023167408
10,261814615.14701096
922,147935830.90779916
2,2, 1, 2, 0,19, 0.00,60.00,Tuesday
11,261814615.14701096
47,26600017.737720655
139,62186953.035926479
279,102134309.61389639
306,0.3285404312248847
330,0.3285404312248847
732,52034097.91615993
826,0.0
843,18716765.68359625
923,147935830.90779916
947,147935830.90779916
972,0.0
997,142471.1597112859
2,2, 1, 2, 0,20, 0.00,60.00,Tuesday
8,-1.6649382965486524
10,209912337.1236956
922,183800414.87078835
2,2, 1, 2, 0,20, 0.00,60.00,Tuesday
11,209912337.1236956
47,30364245.412899037
139,57879795.51771037
279,50733413.43289717
306,0.31325948093535518
330,0.31325948093535518
732,52034097.91615993
826,0.0
843,18716765.68359625
923,183800414.87078835
947,183800414.87078835
972,0.0
997,184019.16043287738
2,2, 1, 2, 0,21, 0.00,60.00,Tuesday
8,-2.0970481657497048
10,208419979.7331692
922,151732556.0039476
2,2, 1, 2, 0,21, 0.00,60.00,Tuesday
11,208419979.7331692
47,30364245.412899037
139,56934113.75577298
279,50223054.57528287
306,0.2865178179286785
330,0.2865178179286785
732,52034097.91615993
826,0.0
843,18716765.68359625
923,151732556.0039476
947,151732556.0039476
972,0.0
997,147702.38945814945
2,2, 1, 2, 0,22, 0.00,60.00,Tuesday
8,-2.448595400822192
10,195962349.88353954
922,199338105.0344444
2,2, 1, 2, 0,22, 0.00,60.00,Tuesday
11,195962349.88353954
47,22835790.062542283
139,52957329.782606247
279,49214482.885290909
306,0.2330344919153252
330,0.2330344919153252
732,52034097.91615993
826,0.0
843,18716765.68359625
923,199338105.0344444
947,199338105.0344444
972,0.0
997,203883.55334392805
2,2, 1, 2, 0,23, 0.00,60.00,Tuesday
8,-3.0766921149082706
10,179265088.11805029
922,203623702.39308048
2,2, 1, 2, 0,23, 0.00,60.00,Tuesday
11,179265088.11805029
47,15307334.71218552
139,44343014.746174048
279,48651467.29444148
306,0.20247259133626617
330,0.20247259133626617
732,52034097.91615993
826,0.0
843,18716765.68359625
923,203623702.39308048
947,203623702.39308048
972,0.0
997,212407.76549309298
2,2, 1, 2, 0,24, 0.00,60.00,Tuesday
8,-3.0766921149082706
10,164393682.18270145
922,216620451.78510509
2,2, 1, 2, 0,24, 0.00,60.00,Tuesday
11,164393682.18270145
47,10037416.073382378
139,36344007.926629859
279,47031061.22834717
306,0.110786889599089
330,0.110786889599089
732,52034097.91615993
826,0.0
843,18716765.68359625
923,216620451.78510509
947,216620451.78510509
972,0.0
997,230333.35458584739
3,2, 1, 2, 0,Tuesday
488,21.538658833432053,21.00071981362296,14,60,22.277997770507527, 1,60
527,20.987930017476875,20.593181527345693,24,60,21.65415663282521, 1,60
566,19.7843084511883,18.975495066345006, 5,60,20.497816701916205,19,60
2,3, 1, 3, 0, 1, 0.00,60.00,Wednesday
8,-3.8400849580777196
10,103850652.05749829
922,277042252.94810077
2,3, 1, 3, 0, 1, 0.00,60.00,Wednesday
11,103850652.05749829
47,7778879.494886996
139,28345001.10708566
279,0.0
306,0.030561900579059044
330,0.030561900579059044
732,52034097.91615993
826,0.0
843,15373519.792114573
923,277042252.94810077
947,277042252.94810077
972,0.0
997,319153.7472511428
2,3, 1, 3, 0, 2, 0.00,60.00,Wednesday
8,-3.839424890680984
10,101299068.28436701
922,210583256.73183579
2,3, 1, 3, 0, 2, 0.00,60.00,Wednesday
11,101299068.28436701
47,7778879.494886996
139,25883768.239533605
279,0.0
306,0.015280950289529522
330,0.015280950289529522
732,52034097.91615993
826,0.0
843,15373519.792114573
923,210583256.73183579
947,210583256.73183579
972,0.0
997,228802.8416719282
2,3, 1, 3, 0, 3, 0.00,60.00,Wednesday
8,-4.1712791770681749
10,100062136.52812776
922,209480102.61023654
2,3, 1, 3, 0, 3, 0.00,60.00,Wednesday
11,100062136.52812776
47,7778879.494886996
139,24653151.805757576
279,0.0
306,0.0038202375723823806
330,0.0038202375723823806
732,52034097.91615993
826,0.0
843,15373519.792114573
923,209480102.61023654
947,209480102.61023654
972,0.0
997,222487.51920870483
2,3, 1, 3, 0, 4, 0.00,60.00,Wednesday
8,-4.310274787688259
10,99548518.255773
922,280891447.1944762
2,3, 1, 3, 0, 4, 0.00,60.00,Wednesday
11,99548518.255773
47,7778879.494886996
139,24037843.588869566
279,0.0
306,0.0038202375723823806
330,0.0038202375723823806
732,52034097.91615993
826,0.0
843,15373519.792114573
923,280891447.1944762
947,280891447.1944762
972,0.0
997,324177.463741955
2,3, 1, 3, 0, 5, 0.00,60.00,Wednesday
8,-5.011897641093955
10,102599378.98103452
922,301210948.1626945
2,3, 1, 3, 0, 5, 0.00,60.00,Wednesday
11,102599378.98103452
47,10790261.55519476
139,24037843.588869566
279,0.0
306,0.015280950289529522
330,0.015280950289529522
732,52034097.91615993
826,0.0
843,15373519.792114573
923,301210948.1626945
947,301210948.1626945
972,0.0
997,363656.1286957019
2,3, 1, 3, 0, 6, 0.00,60.00,Wednesday
8,-5.348283325588144
10,137188690.5420525
922,286016462.4448438
2,3, 1, 3, 0, 6, 0.00,60.00,Wednesday
11,137188690.5420525
47,16060180.327056138
139,27114384.67330963
279,26264953.06815423
306,0.10314641445432428
330,0.10314641445432428
732,52034097.91615993
826,0.0
843,15373519.792114573
923,286016462.4448438
947,286016462.4448438
972,0.0
997,341554.76525799828
2,3, 1, 3, 0, 7, 0.00,60.00,Wednesday
8,-5.654568022820762
10,197906215.5210397
922,297309628.5951853
2,3, 1, 3, 0, 7, 0.00,60.00,Wednesday
11,197906215.5210397
47,16813025.80886852
139,35540880.99285161
279,74442900.6081346
306,0.35910233180394376
330,0.35910233180394376
732,52034097.91615993
826,0.0
843,18716765.68359625
923,297309628.5951853
947,297309628.5951853
972,0.0
997,358544.51142883548
2,3, 1, 3, 0, 8, 0.00,60.00,Wednesday
8,-5.4788702207489179
10,225897413.44854857
922,275573815.44185587
2,3, 1, 3, 0, 8, 0.00,60.00,Wednesday
11,225897413.44854857
47,16060180.327056138
139,44672094.949032489
279,94089529.76184237
306,0.38202375723823797
330,0.38202375723823797
732,52034097.91615993
826,0.0
843,18716765.68359625
923,275573815.44185587
947,275573815.44185587
972,0.0
997,324744.8108614459
2,3, 1, 3, 0, 9, 0.00,60.00,Wednesday
8,-5.78833505928885
10,171553786.28038595
922,229055190.92256896
2,3, 1, 3, 0, 9, 0.00,60.00,Wednesday
11,171553786.28038595
47,13331504.988615539
139,44185447.643772918
279,61748866.6159368
306,0.3667428069487085
330,0.3667428069487085
732,52034097.91615993
826,0.0
843,0.0
923,229055190.92256896
947,229055190.92256896
972,0.0
997,253869.11590075313
2,3, 1, 3, 0,10, 0.00,60.00,Wednesday
8,-6.360779300234708
10,158353009.0982549
922,308274649.86660829
2,3, 1, 3, 0,10, 0.00,60.00,Wednesday
11,158353009.0982549
47,11825813.891932542
139,43213927.34096669
279,50909648.253480877
306,0.3208999560801199
330,0.3208999560801199
732,52034097.91615993
826,0.0
843,0.0
923,308274649.86660829
947,308274649.86660829
972,0.0
997,369521.6957148469
2,3, 1, 3, 0,11, 0.00,60.00,Wednesday
8,-6.209417884049362
10,209286708.37962935
922,284416283.66443529
2,3, 1, 3, 0,11, 0.00,60.00,Wednesday
11,209286708.37962935
47,11825813.891932542
139,44444543.77474271
279,100643231.20843269
306,0.29033805550106087
330,0.29033805550106087
732,52034097.91615993
826,0.0
843,0.0
923,284416283.66443529
947,284416283.66443529
972,0.0
997,339021.5883614893
2,3, 1, 3, 0,12, 0.00,60.00,Wednesday
8,-6.0824279633693039
10,159084953.8516962
922,254016837.82282806
2,3, 1, 3, 0,12, 0.00,60.00,Wednesday
11,159084953.8516962
47,11825813.891932542
139,45741188.37604289
279,49193199.97453728
306,0.2330344919153252
330,0.2330344919153252
732,52034097.91615993
826,0.0
843,0.0
923,254016837.82282806
947,254016837.82282806
972,0.0
997,290653.6930235537
2,3, 1, 3, 0,13, 0.00,60.00,Wednesday
8,-6.550193446183367
10,157453295.40219835
922,268807204.41869398
2,3, 1, 3, 0,13, 0.00,60.00,Wednesday
11,157453295.40219835
47,11472863.415068545
139,45006583.550586689
279,48629644.97541994
306,0.20247259133626617
330,0.20247259133626617
732,52034097.91615993
826,0.0
843,0.0
923,268807204.41869398
947,268807204.41869398
972,0.0
997,310105.5449632396
2,3, 1, 3, 0,14, 0.00,60.00,Wednesday
8,-6.889542842120662
10,106783695.9724914
922,277910088.4369976
2,3, 1, 3, 0,14, 0.00,60.00,Wednesday
11,106783695.9724914
47,11825813.891932542
139,42598619.12407866
279,0.0
306,0.17955116590197188
330,0.17955116590197188
732,52034097.91615993
826,0.0
843,0.0
923,277910088.4369976
947,277910088.4369976
972,0.0
997,325165.0403202703
2,3, 1, 3, 0,15, 0.00,60.00,Wednesday
8,-7.3508378156906419
10,153978101.95935396
922,260425527.38115949
2,3, 1, 3, 0,15, 0.00,60.00,Wednesday
11,153978101.95935396
47,11825813.891932542
139,41983310.90719065
279,47835929.228698227
306,0.15662974046767759
330,0.15662974046767759
732,52034097.91615993
826,0.0
843,0.0
923,260425527.38115949
947,260425527.38115949
972,0.0
997,298950.01537260916
2,3, 1, 3, 0,16, 0.00,60.00,Wednesday
8,-7.469274250048447
10,159430723.52054448
922,266366170.6876977
2,3, 1, 3, 0,16, 0.00,60.00,Wednesday
11,159430723.52054448
47,14084350.603486157
139,44774567.350832838
279,48231709.54632972
306,0.17955116590197188
330,0.17955116590197188
732,52034097.91615993
826,0.0
843,0.0
923,266366170.6876977
947,266366170.6876977
972,0.0
997,305998.1037357809
2,3, 1, 3, 0,17, 0.00,60.00,Wednesday
8,-7.904415557688695
10,173666515.95411445
922,272260861.36758908
2,3, 1, 3, 0,17, 0.00,60.00,Wednesday
11,173666515.95411445
47,19354269.242289299
139,53185198.669177968
279,48778020.49488139
306,0.21011306648103093
330,0.21011306648103093
732,52034097.91615993
826,0.0
843,0.0
923,272260861.36758908
947,272260861.36758908
972,0.0
997,314929.63160588176
2,3, 1, 3, 0,18, 0.00,60.00,Wednesday
8,-8.367190283489729
10,208074532.97351716
922,271521922.7155395
2,3, 1, 3, 0,18, 0.00,60.00,Wednesday
11,208074532.97351716
47,21330098.96585928
139,65608614.308901477
279,50070694.02531159
306,0.27887734278391376
330,0.27887734278391376
732,52034097.91615993
826,0.0
843,18716765.68359625
923,271521922.7155395
947,271521922.7155395
972,0.0
997,314262.0736886346
2,3, 1, 3, 0,19, 0.00,60.00,Wednesday
8,-8.255558329956174
10,210906568.5727515
922,268203237.50970543
2,3, 1, 3, 0,19, 0.00,60.00,Wednesday
11,210906568.5727515
47,26600017.737720655
139,62186953.035926479
279,51059129.425829518
306,0.3285404312248847
330,0.3285404312248847
732,52034097.91615993
826,0.0
843,18716765.68359625
923,268203237.50970543
947,268203237.50970543
972,0.0
997,309604.7735186827
2,3, 1, 3, 0,20, 0.00,60.00,Wednesday
8,-8.816054925650735
10,260789122.53459106
922,229542085.4849695
2,3, 1, 3, 0,20, 0.00,60.00,Wednesday
11,260789122.53459106
47,30364245.412899037
139,57879795.51771037
279,101541738.92976722
306,0.31325948093535518
330,0.31325948093535518
732,52034097.91615993
826,0.0
843,18716765.68359625
923,229542085.4849695
947,229542085.4849695
972,0.0
997,252479.07445823364
2,3, 1, 3, 0,21, 0.00,60.00,Wednesday
8,-8.816054925650735
10,208520392.24884326
922,235545555.6670501
2,3, 1, 3, 0,21, 0.00,60.00,Wednesday
11,208520392.24884326
47,30364245.412899037
139,56934113.75577298
279,50214033.4804985
306,0.2865178179286785
330,0.2865178179286785
732,52034097.91615993
826,0.0
843,18716765.68359625
923,235545555.6670501
947,235545555.6670501
972,0.0
997,257135.99991657848
2,3, 1, 3, 0,22, 0.00,60.00,Wednesday
8,-10.14379348977496
10,196006705.80744393
922,236643848.58690889
2,3, 1, 3, 0,22, 0.00,60.00,Wednesday
11,196006705.80744393
47,22835790.062542283
139,52957329.782606247
279,49204333.504757549
306,0.2330344919153252
330,0.2330344919153252
732,52034097.91615993
826,0.0
843,18716765.68359625
923,236643848.58690889
947,236643848.58690889
972,0.0
997,258388.8577816826
2,3, 1, 3, 0,23, 0.00,60.00,Wednesday
8,-9.490273946420136
10,179334917.79103787
922,260644881.66812686
2,3, 1, 3, 0,23, 0.00,60.00,Wednesday
11,179334917.79103787
47,15307334.71218552