Program Version,EnergyPlus, Version 9.1.0-08d2e308bb, YMD=2019.12.31 12:48
1,5,Environment Title[],Latitude[deg],Longitude[deg],Time Zone[],Elevation[m]
2,8,Day of Simulation[],Month[],Day of Month[],DST Indicator[1=yes 0=no],Hour[],StartMinute[],EndMinute[],DayType
3,5,Cumulative Day of Simulation[],Month[],Day of Month[],DST Indicator[1=yes 0=no],DayType  ! When Daily Report Variables Requested
4,2,Cumulative Days of Simulation[],Month[]  ! When Monthly Report Variables Requested
5,1,Cumulative Days of Simulation[] ! When Run Period Report Variables Requested
6,1,Calendar Year of Simulation[] ! When Annual Report Variables Requested
7,9,Environment,Site Outdoor Air Drybulb Temperature [C] !Monthly [Value,Min,Day,Hour,Minute,Max,Day,Hour,Minute]
8,1,Environment,Site Outdoor Air Wetbulb Temperature [C] !TimeStep
488,7,BUILDING STORY 1 THERMALZONE,Zone Air Relative Humidity [%] !Daily [Value,Min,Hour,Minute,Max,Hour,Minute]
527,7,BUILDING STORY 2 THERMALZONE,Zone Air Relative Humidity [%] !Daily [Value,Min,Hour,Minute,Max,Hour,Minute]
566,7,BUILDING STORY 3 THERMALZONE,Zone Air Relative Humidity [%] !Daily [Value,Min,Hour,Minute,Max,Hour,Minute]
972,1,Heating:Electricity [J] !Hourly
947,1,Heating:Gas [J] !Hourly
826,1,Cooling:Electricity [J] !Hourly
47,1,InteriorLights:Electricity [J] !Hourly
843,1,ExteriorLights:Electricity [J] !Hourly
139,1,InteriorEquipment:Electricity [J] !Hourly
732,1,Fans:Electricity [J] !Hourly
997,1,Pumps:Electricity [J] !Hourly
279,1,WaterSystems:Electricity [J] !Hourly
330,1,WaterSystems:Water [m3] !Hourly
11,1,Electricity:Facility [J] !Hourly
923,1,Gas:Facility [J] !Hourly
306,1,Water:Facility [m3] !Hourly
10,1,Electricity:Facility [J] !TimeStep
922,1,Gas:Facility [J] !TimeStep
End of Data Dictionary
1,RUN PERIOD 1,  42.93, -78.73,  -5.00, 215.00
2,1, 1, 1, 0, 1, 0.00,60.00,Monday
8,-1.1802458087361237
10,365661366.9054028
922,613889311.0260995
2,1, 1, 1, 0, 1, 0.00,60.00,Monday
11,365661366.9054028
47,30904514.992873029
139,112611143.0653622
279,0.0
306,0.1211937436755789
330,0.1211937436755789
732,160464168.62977559
826,0.0
843,61075504.06359731
923,613889311.0260995
947,613889311.0260995
972,0.0
997,606036.153794699
2,1, 1, 1, 0, 2, 0.00,60.00,Monday
8,-1.1802458087361237
10,356003433.0323913
922,716470075.3669192
2,1, 1, 1, 0, 2, 0.00,60.00,Monday
11,356003433.0323913
47,30904514.992873029
139,102832972.81523679
279,0.0
306,0.06059687183778945
330,0.06059687183778945
732,160464168.62977559
826,0.0
843,61075504.06359731
923,716470075.3669192
947,716470075.3669192
972,0.0
997,726272.5309085825
2,1, 1, 1, 0, 3, 0.00,60.00,Monday
8,-1.87387394903547
10,350990248.3832644
922,613549110.4854043
2,1, 1, 1, 0, 3, 0.00,60.00,Monday
11,350990248.3832644
47,30904514.992873029
139,97943887.69017409
279,0.0
306,0.015149217959447363
330,0.015149217959447363
732,160464168.62977559
826,0.0
843,61075504.06359731
923,613549110.4854043
947,613549110.4854043
972,0.0
997,602173.0068444065
2,1, 1, 1, 0, 4, 0.00,60.00,Monday
8,-1.5103272887722317
10,348308355.8583812
922,404548044.8547491
2,1, 1, 1, 0, 4, 0.00,60.00,Monday
11,348308355.8583812
47,30904514.992873029
139,95499345.12764275
279,0.0
306,0.015149217959447363
330,0.015149217959447363
732,160464168.62977559
826,0.0
843,61075504.06359731
923,404548044.8547491
947,404548044.8547491
972,0.0
997,364823.0444925704
2,1, 1, 1, 0, 5, 0.00,60.00,Monday
8,-1.665952381653312
10,360464889.25941196
922,592117898.5668397
2,1, 1, 1, 0, 5, 0.00,60.00,Monday
11,360464889.25941196
47,42868359.154904518
139,95499345.12764275
279,0.0
306,0.06059687183778945
330,0.06059687183778945
732,160464168.62977559
826,0.0
843,61075504.06359731
923,592117898.5668397
947,592117898.5668397
972,0.0
997,557512.2834917855
2,1, 1, 1, 0, 6, 0.00,60.00,Monday
8,-1.3944780310032846
10,393397485.87226316
922,374797658.0967782
2,1, 1, 1, 0, 6, 0.00,60.00,Monday
11,393397485.87226316
47,63805087.099239248
139,107722057.9402995
279,0.0
306,0.4090288849050788
330,0.4090288849050788
732,160464168.62977559
826,0.0
843,61075504.06359731
923,374797658.0967782
947,374797658.0967782
972,0.0
997,330668.1393514866
2,1, 1, 1, 0, 7, 0.00,60.00,Monday
8,-1.1805889590406258
10,845146884.3274545
922,477909354.7492772
2,1, 1, 1, 0, 7, 0.00,60.00,Monday
11,845146884.3274545
47,66796048.00759117
139,140037589.51312698
279,409682099.07417967
306,1.4240264881880523
330,1.4240264881880523
732,160464168.62977559
826,0.0
843,67739200.33518712
923,477909354.7492772
947,477909354.7492772
972,0.0
997,427778.7675938833
2,1, 1, 1, 0, 8, 0.00,60.00,Monday
8,-1.3944780310032846
10,674882130.6488296
922,510579491.0703347
2,1, 1, 1, 0, 8, 0.00,60.00,Monday
11,674882130.6488296
47,63805087.099239248
139,176314760.12586237
279,206095635.04834465
306,1.5149217959447364
330,1.5149217959447364
732,160464168.62977559
826,0.0
843,67739200.33518712
923,510579491.0703347
947,510579491.0703347
972,0.0
997,463279.4104204992
2,1, 1, 1, 0, 9, 0.00,60.00,Monday
8,-1.665952381653312
10,799255020.1057974
922,548766769.2651584
2,1, 1, 1, 0, 9, 0.00,60.00,Monday
11,799255020.1057974
47,52964401.3728503
139,174381371.26805554
279,410937950.4514932
306,1.454324924106947
330,1.454324924106947
732,160464168.62977559
826,0.0
843,0.0
923,548766769.2651584
947,548766769.2651584
972,0.0
997,507128.3836227893
2,1, 1, 1, 0,10, 0.00,60.00,Monday
8,-1.1802458087361237
10,581248291.1518126
922,472523726.4976637
2,1, 1, 1, 0,10, 0.00,60.00,Monday
11,581248291.1518126
47,46982479.02752268
139,171683526.69399876
279,201691306.86117659
306,1.2725343085935786
330,1.2725343085935786
732,160464168.62977559
826,0.0
843,0.0
923,472523726.4976637
947,472523726.4976637
972,0.0
997,426809.93933891408
2,1, 1, 1, 0,11, 0.00,60.00,Monday
8,-0.9849379844004382
10,583872213.8097458
922,528318678.6947472
2,1, 1, 1, 0,11, 0.00,60.00,Monday
11,583872213.8097458
47,46982479.02752268
139,176572611.81906144
279,199369095.85093249
306,1.1513405649179996
330,1.1513405649179996
732,160464168.62977559
826,0.0
843,0.0
923,528318678.6947472
947,528318678.6947472
972,0.0
997,483858.4824536259
2,1, 1, 1, 0,12, 0.00,60.00,Monday
8,-0.818433687998716
10,583646105.1456217
922,585441676.4101342
2,1, 1, 1, 0,12, 0.00,60.00,Monday
11,583646105.1456217
47,46982479.02752268
139,180562134.55370135
279,195086106.81857304
306,0.9241022955262891
330,0.9241022955262891
732,160464168.62977559
826,0.0
843,0.0
923,585441676.4101342
947,585441676.4101342
972,0.0
997,551216.1160489788
2,1, 1, 1, 0,13, 0.00,60.00,Monday
8,-0.598194072481827
10,576978778.6527726
922,476099630.6310088
2,1, 1, 1, 0,13, 0.00,60.00,Monday
11,576978778.6527726
47,45580250.94169688
139,177643641.4909061
279,192857552.49455867
306,0.8029085518507103
330,0.8029085518507103
732,160464168.62977559
826,0.0
843,0.0
923,476099630.6310088
947,476099630.6310088
972,0.0
997,433165.0958353523
2,1, 1, 1, 0,14, 0.00,60.00,Monday
8,-0.2717280594017997
10,568301965.2073696
922,465640307.6070705
2,1, 1, 1, 0,14, 0.00,60.00,Monday
11,568301965.2073696
47,46982479.02752268
139,169238984.1314674
279,191199570.60727058
306,0.7120132440940261
330,0.7120132440940261
732,160464168.62977559
826,0.0
843,0.0
923,465640307.6070705
947,465640307.6070705
972,0.0
997,416762.8113333628
2,1, 1, 1, 0,15, 0.00,60.00,Monday
8,-0.04571975547003023
10,564176790.065035
922,433292415.098188
2,1, 1, 1, 0,15, 0.00,60.00,Monday
11,564176790.065035
47,46982479.02752268
139,166794441.56893606
279,189554238.57590596
306,0.6211179363373419
330,0.6211179363373419
732,160464168.62977559
826,0.0
843,0.0
923,433292415.098188
947,433292415.098188
972,0.0
997,381462.2628946548
2,1, 1, 1, 0,16, 0.00,60.00,Monday
8,-0.04535544602759805
10,584723959.226774
922,515747767.00845
2,1, 1, 1, 0,16, 0.00,60.00,Monday
11,584723959.226774
47,55955362.80982594
139,176721870.1575675
279,191115981.3829551
306,0.7120132440940261
330,0.7120132440940261
732,160464168.62977559
826,0.0
843,0.0
923,515747767.00845
947,515747767.00845
972,0.0
997,466576.24664971328
2,1, 1, 1, 0,17, 0.00,60.00,Monday
8,-0.04535544602759805
10,553392129.4761593
922,490612030.0708636
2,1, 1, 1, 0,17, 0.00,60.00,Monday
11,553392129.4761593
47,76892090.22553696
139,210136256.10456313
279,105456046.58518964
306,0.8332069877696051
330,0.8332069877696051
732,160464168.62977559
826,0.0
843,0.0
923,490612030.0708636
947,490612030.0708636
972,0.0
997,443567.9310940077
2,1, 1, 1, 0,18, 0.00,60.00,Monday
8,-0.4337098548147795
10,861516530.2633157
922,473374968.87316927
2,1, 1, 1, 0,18, 0.00,60.00,Monday
11,861516530.2633157
47,84741814.51495026
139,259492932.1082073
279,288653186.1631667
306,1.1058929110396576
330,1.1058929110396576
732,160464168.62977559
826,0.0
843,67739200.33518712
923,473374968.87316927
947,473374968.87316927
972,0.0
997,425228.5120286461
2,1, 1, 1, 0,19, 0.00,60.00,Monday
8,-1.0213911744465183
10,783794268.2260171
922,604007129.9743033
2,1, 1, 1, 0,19, 0.00,60.00,Monday
11,783794268.2260171
47,105678542.45928499
139,247060984.00458647
279,202276395.13556055
306,1.3028327445124733
330,1.3028327445124733
732,160464168.62977559
826,0.0
843,67739200.33518712
923,604007129.9743033
947,604007129.9743033
972,0.0
997,574977.6616224129
2,1, 1, 1, 0,20, 0.00,60.00,Monday
8,-1.1809288569695527
10,780459601.7936974
922,561164009.7995354
2,1, 1, 1, 0,20, 0.00,60.00,Monday
11,780459601.7936974
47,120633348.05829214
139,229949186.066867
279,201138118.52577899
306,1.2422358726746839
330,1.2422358726746839
732,160464168.62977559
826,0.0
843,67739200.33518712
923,561164009.7995354
947,561164009.7995354
972,0.0
997,535580.177796694
2,1, 1, 1, 0,21, 0.00,60.00,Monday
8,-1.5108130242800387
10,972563960.0811019
922,500405932.56937399
2,1, 1, 1, 0,21, 0.00,60.00,Monday
11,972563960.0811019
47,120633348.05829214
139,225030226.7049352
279,398233736.3181284
306,1.1361913469585523
330,1.1361913469585523
732,160464168.62977559
826,0.0
843,67739200.33518712
923,500405932.56937399
947,500405932.56937399
972,0.0
997,463280.0347833667
2,1, 1, 1, 0,22, 0.00,60.00,Monday
8,-1.6662902470607773
10,724803535.4411522
922,567169594.4519451
2,1, 1, 1, 0,22, 0.00,60.00,Monday
11,724803535.4411522
47,90723736.86027786
139,210392845.56661619
279,194950068.66682319
306,0.9241022955262891
330,0.9241022955262891
732,160464168.62977559
826,0.0
843,67739200.33518712
923,567169594.4519451
947,567169594.4519451
972,0.0
997,533515.3824722414
2,1, 1, 1, 0,23, 0.00,60.00,Monday
8,-1.874803504688023
10,531476077.0095396
922,745035635.9161972
2,1, 1, 1, 0,23, 0.00,60.00,Monday
11,531476077.0095396
47,60814125.66226358
139,176169249.69117729
279,65527674.7856448
306,0.8029085518507103
330,0.8029085518507103
732,160464168.62977559
826,0.0
843,67739200.33518712
923,745035635.9161972
947,745035635.9161972
972,0.0
997,761657.9054911463
2,1, 1, 1, 0,24, 0.00,60.00,Monday
8,-1.665952381653312
10,536224675.93995758
922,722034205.0709132
2,1, 1, 1, 0,24, 0.00,60.00,Monday
11,536224675.93995758
47,39877398.24655257
139,144390196.37826974
279,123006928.88687831
306,0.4393273208239735
330,0.4393273208239735
732,160464168.62977559
826,0.0
843,67739200.33518712
923,722034205.0709132
947,722034205.0709132
972,0.0
997,746783.4632942489
3,1, 1, 1, 0,Monday
488,22.48426681926553,21.663961096504648,13,60,22.961555244597425, 7,60
527,22.106854268997595,21.54725925728425,13,60,22.491872941168226, 7,60
566,20.80084455433241,20.455121506046689,12,60,21.418293169475434,19,60
2,2, 1, 2, 0, 1, 0.00,60.00,Tuesday
8,-2.450886200756528
10,365710870.03788009
922,655030723.1812649
2,2, 1, 2, 0, 1, 0.00,60.00,Tuesday
11,365710870.03788009
47,30904514.992873029
139,112611143.0653622
279,0.0
306,0.1211937436755789
330,0.1211937436755789
732,160464168.62977559
826,0.0
843,61075504.06359731
923,655030723.1812649
947,655030723.1812649
972,0.0
997,655539.2862719643
2,2, 1, 2, 0, 2, 0.00,60.00,Tuesday
8,-2.248902511226617
10,356324966.2676416
922,936844291.9671695
2,2, 1, 2, 0, 2, 0.00,60.00,Tuesday
11,356324966.2676416
47,30904514.992873029
139,102832972.81523679
279,0.0
306,0.06059687183778945
330,0.06059687183778945
732,160464168.62977559
826,0.0
843,61075504.06359731
923,936844291.9671695
947,936844291.9671695
972,0.0
997,1047805.7661588965
2,2, 1, 2, 0, 3, 0.00,60.00,Tuesday
8,-2.248902511226617
10,351250080.945258
922,793531801.642423
2,2, 1, 2, 0, 3, 0.00,60.00,Tuesday
11,351250080.945258
47,30904514.992873029
139,97943887.69017409
279,0.0
306,0.015149217959447363
330,0.015149217959447363
732,160464168.62977559
826,0.0
843,61075504.06359731
923,793531801.642423
947,793531801.642423
972,0.0
997,862005.568837997
2,2, 1, 2, 0, 4, 0.00,60.00,Tuesday
8,-1.665952381653312
10,348780948.1003361
922,784768504.5713464
2,2, 1, 2, 0, 4, 0.00,60.00,Tuesday
11,348780948.1003361
47,30904514.992873029
139,95499345.12764275
279,0.0
306,0.015149217959447363
330,0.015149217959447363
732,160464168.62977559
826,0.0
843,61075504.06359731
923,784768504.5713464
947,784768504.5713464
972,0.0
997,837415.2864474299
2,2, 1, 2, 0, 5, 0.00,60.00,Tuesday
8,-2.8216230582487005
10,360713690.1508672
922,763033564.615655
2,2, 1, 2, 0, 5, 0.00,60.00,Tuesday
11,360713690.1508672
47,42868359.154904518
139,95499345.12764275
279,0.0
306,0.06059687183778945
330,0.06059687183778945
732,160464168.62977559
826,0.0
843,61075504.06359731
923,763033564.615655
947,763033564.615655
972,0.0
997,806313.1749470856
2,2, 1, 2, 0, 6, 0.00,60.00,Tuesday
8,-1.665952381653312
10,579764385.4504674
922,726915778.966305
2,2, 1, 2, 0, 6, 0.00,60.00,Tuesday
11,579764385.4504674
47,63805087.099239248
139,107722057.9402995
279,185943152.8893558
306,0.4090288849050788
330,0.4090288849050788
732,160464168.62977559
826,0.0
843,61075504.06359731
923,726915778.966305
947,726915778.966305
972,0.0
997,754414.828199837
2,2, 1, 2, 0, 7, 0.00,60.00,Tuesday
8,-1.665952381653312
10,640604907.0592282
922,744642057.1254619
2,2, 1, 2, 0, 7, 0.00,60.00,Tuesday
11,640604907.0592282
47,66796048.00759117
139,140037589.51312698
279,204792464.19273407
306,1.4240264881880523
330,1.4240264881880523
732,160464168.62977559
826,0.0
843,67739200.33518712
923,744642057.1254619
947,744642057.1254619
972,0.0
997,775436.3808131277
2,2, 1, 2, 0, 8, 0.00,60.00,Tuesday
8,-1.66561355779768
10,881493763.6254581
922,684575566.1023986
2,2, 1, 2, 0, 8, 0.00,60.00,Tuesday
11,881493763.6254581
47,63805087.099239248
139,176314760.12586237
279,412473763.13693508
306,1.5149217959447364
330,1.5149217959447364
732,160464168.62977559
826,0.0
843,67739200.33518712
923,684575566.1023986
947,684575566.1023986
972,0.0
997,696784.2984586795
2,2, 1, 2, 0, 9, 0.00,60.00,Tuesday
8,-1.66561355779768
10,593900759.0422602
922,669411753.6656183
2,2, 1, 2, 0, 9, 0.00,60.00,Tuesday
11,593900759.0422602
47,52964401.3728503
139,174381371.26805554
279,205420762.74081636
306,1.454324924106947
330,1.454324924106947
732,160464168.62977559
826,0.0
843,0.0
923,669411753.6656183
947,669411753.6656183
972,0.0
997,670055.0307623753
2,2, 1, 2, 0,10, 0.00,60.00,Tuesday
8,-1.1802458087361237
10,783467187.9853423
922,687590903.8012902
2,2, 1, 2, 0,10, 0.00,60.00,Tuesday
11,783467187.9853423
47,46982479.02752268
139,171683526.69399876
279,403646278.53186568
306,1.2725343085935786
330,1.2725343085935786
732,160464168.62977559
826,0.0
843,0.0
923,687590903.8012902
947,687590903.8012902
972,0.0
997,690735.1021796068
2,2, 1, 2, 0,11, 0.00,60.00,Tuesday
8,-1.1799047350000767
10,583992079.6651687
922,659774144.9140427
2,2, 1, 2, 0,11, 0.00,60.00,Tuesday
11,583992079.6651687
47,46982479.02752268
139,176572611.81906144
279,199315808.1060966
306,1.1513405649179996
330,1.1513405649179996
732,160464168.62977559
826,0.0
843,0.0
923,659774144.9140427
947,659774144.9140427
972,0.0
997,657012.0827122735
2,2, 1, 2, 0,12, 0.00,60.00,Tuesday
8,-0.817959937909318
10,583582523.7930397
922,569116030.4354025
2,2, 1, 2, 0,12, 0.00,60.00,Tuesday
11,583582523.7930397
47,46982479.02752268
139,180562134.55370135
279,195028357.2639613
306,0.9241022955262891
330,0.9241022955262891
732,160464168.62977559
826,0.0
843,0.0
923,569116030.4354025
947,569116030.4354025
972,0.0
997,545384.3180788916
2,2, 1, 2, 0,13, 0.00,60.00,Tuesday
8,-0.9843616670581066
10,577022752.6832632
922,567976438.0074301
2,2, 1, 2, 0,13, 0.00,60.00,Tuesday
11,577022752.6832632
47,45580250.94169688
139,177643641.4909061
279,192797314.43120534
306,0.8029085518507103
330,0.8029085518507103
732,160464168.62977559
826,0.0
843,0.0
923,567976438.0074301
947,567976438.0074301
972,0.0
997,537377.1896792543
2,2, 1, 2, 0,14, 0.00,60.00,Tuesday
8,-0.817959937909318
10,568408365.5668576
922,610052215.895368
2,2, 1, 2, 0,14, 0.00,60.00,Tuesday
11,568408365.5668576
47,46982479.02752268
139,169238984.1314674
279,191137181.96287508
306,0.7120132440940261
330,0.7120132440940261
732,160464168.62977559
826,0.0
843,0.0
923,610052215.895368
947,610052215.895368
972,0.0
997,585551.8152167214
2,2, 1, 2, 0,15, 0.00,60.00,Tuesday
8,-0.5975033634303576
10,374743649.56811359
922,536651222.85858198
2,2, 1, 2, 0,15, 0.00,60.00,Tuesday
11,374743649.56811359
47,46982479.02752268
139,166794441.56893606
279,0.0
306,0.6211179363373419
330,0.6211179363373419
732,160464168.62977559
826,0.0
843,0.0
923,536651222.85858198
947,536651222.85858198
972,0.0
997,502560.3418792703
2,2, 1, 2, 0,16, 0.00,60.00,Tuesday
8,-0.5971565962370674
10,584870857.9112054
922,548653177.7446754
2,2, 1, 2, 0,16, 0.00,60.00,Tuesday
11,584870857.9112054
47,55955362.80982594
139,176721870.1575675
279,191218018.89053739
306,0.7120132440940261
330,0.7120132440940261
732,160464168.62977559
826,0.0
843,0.0
923,548653177.7446754
947,548653177.7446754
972,0.0
997,511437.4234989369
2,2, 1, 2, 0,17, 0.00,60.00,Tuesday
8,-0.5971565962370674
10,641403113.365972
922,565875066.9551448
2,2, 1, 2, 0,17, 0.00,60.00,Tuesday
11,641403113.365972
47,76892090.22553696
139,210136256.10456313
279,193379332.7607678
306,0.8332069877696051
330,0.8332069877696051
732,160464168.62977559
826,0.0
843,0.0
923,565875066.9551448
947,565875066.9551448
972,0.0
997,531265.6453285766
2,2, 1, 2, 0,18, 0.00,60.00,Tuesday
8,-1.1795657539051999
10,771441806.9697614
922,545378599.8825219
2,2, 1, 2, 0,18, 0.00,60.00,Tuesday
11,771441806.9697614
47,84741814.51495026
139,259492932.1082073
279,198493560.98238225
306,1.1058929110396576
330,1.1058929110396576
732,160464168.62977559
826,0.0
843,67739200.33518712
923,545378599.8825219
947,545378599.8825219
972,0.0
997,510130.3992588209
2,2, 1, 2, 0,19, 0.00,60.00,Tuesday
8,-1.020404023167408
10,986186675.2276129
922,479569557.31547698
2,2, 1, 2, 0,19, 0.00,60.00,Tuesday
11,986186675.2276129
47,105678542.45928499
139,247060984.00458647
279,404806210.67823979
306,1.3028327445124733
330,1.3028327445124733
732,160464168.62977559
826,0.0
843,67739200.33518712
923,479569557.31547698
947,479569557.31547698
972,0.0
997,437569.12053908137
2,2, 1, 2, 0,20, 0.00,60.00,Tuesday
8,-1.6649382965486524
10,780433957.6574205
922,597690311.6789376
2,2, 1, 2, 0,20, 0.00,60.00,Tuesday
11,780433957.6574205
47,120633348.05829214
139,229949186.066867
279,201079417.972032
306,1.2422358726746839
330,1.2422358726746839
732,160464168.62977559
826,0.0
843,67739200.33518712
923,597690311.6789376
947,597690311.6789376
972,0.0
997,568636.5952667337
2,2, 1, 2, 0,21, 0.00,60.00,Tuesday
8,-2.0970481657497048
10,773373211.2021581
922,488133904.7658944
2,2, 1, 2, 0,21, 0.00,60.00,Tuesday
11,773373211.2021581
47,120633348.05829214
139,225030226.7049352
279,199057111.68251587
306,1.1361913469585523
330,1.1361913469585523
732,160464168.62977559
826,0.0
843,67739200.33518712
923,488133904.7658944
947,488133904.7658944
972,0.0
997,449155.7914522084
2,2, 1, 2, 0,22, 0.00,60.00,Tuesday
8,-2.448595400822192
10,725006216.551012
922,645428927.3142395
2,2, 1, 2, 0,22, 0.00,60.00,Tuesday
11,725006216.551012
47,90723736.86027786
139,210392845.56661619
279,195060683.23030506
306,0.9241022955262891
330,0.9241022955262891
732,160464168.62977559
826,0.0
843,67739200.33518712
923,645428927.3142395
947,645428927.3142395
972,0.0
997,625581.9288501946
2,2, 1, 2, 0,23, 0.00,60.00,Tuesday
8,-3.0766921149082706
10,658665453.6221026
922,657042773.6874199
2,2, 1, 2, 0,23, 0.00,60.00,Tuesday
11,658665453.6221026
47,60814125.66226358
139,176169249.69117729
279,192829314.3689631
306,0.8029085518507103
330,0.8029085518507103
732,160464168.62977559
826,0.0
843,67739200.33518712
923,657042773.6874199
947,657042773.6874199
972,0.0
997,649394.9347359353
2,2, 1, 2, 0,24, 0.00,60.00,Tuesday
8,-3.0766921149082706
10,531112717.25458046
922,697842413.3773515
2,2, 1, 2, 0,24, 0.00,60.00,Tuesday
11,531112717.25458046
47,39877398.24655257
139,144390196.37826974
279,117940071.86853124
306,0.4393273208239735
330,0.4393273208239735
732,160464168.62977559
826,0.0
843,67739200.33518712
923,697842413.3773515
947,697842413.3773515
972,0.0
997,701681.7962641601
3,2, 1, 2, 0,Tuesday
488,21.671008159516686,21.08098376452912,14,60,22.433045406832258, 1,60
527,21.18550520477597,20.772663950399797,14,60,21.875147961681305, 1,60
566,19.80131906376762,18.856458659300157, 5,60,20.61762345954281,19,60
2,3, 1, 3, 0, 1, 0.00,60.00,Wednesday
8,-3.8400849580777196
10,432542171.1300133
922,896110587.4643525
2,3, 1, 3, 0, 1, 0.00,60.00,Wednesday
11,432542171.1300133
47,30904514.992873029
139,112611143.0653622
279,66503773.33422474
306,0.1211937436755789
330,0.1211937436755789
732,160464168.62977559
826,0.0
843,61075504.06359731
923,896110587.4643525
947,896110587.4643525
972,0.0
997,983067.0441804302
2,3, 1, 3, 0, 2, 0.00,60.00,Wednesday
8,-3.839424890680984
10,355962004.5439817
922,668872937.4784128
2,3, 1, 3, 0, 2, 0.00,60.00,Wednesday
11,355962004.5439817
47,30904514.992873029
139,102832972.81523679
279,0.0
306,0.06059687183778945
330,0.06059687183778945
732,160464168.62977559
826,0.0
843,61075504.06359731
923,668872937.4784128
947,668872937.4784128
972,0.0
997,684844.0424989358
2,3, 1, 3, 0, 3, 0.00,60.00,Wednesday
8,-4.1712791770681749
10,351049199.5382928
922,665508995.0912079
2,3, 1, 3, 0, 3, 0.00,60.00,Wednesday
11,351049199.5382928
47,30904514.992873029
139,97943887.69017409
279,0.0
306,0.015149217959447363
330,0.015149217959447363
732,160464168.62977559
826,0.0
843,61075504.06359731
923,665508995.0912079
947,665508995.0912079
972,0.0
997,661124.1618727794
2,3, 1, 3, 0, 4, 0.00,60.00,Wednesday
8,-4.310274787688259
10,348928861.1611069
922,903253649.1296554
2,3, 1, 3, 0, 4, 0.00,60.00,Wednesday
11,348928861.1611069
47,30904514.992873029
139,95499345.12764275
279,0.0
306,0.015149217959447363
330,0.015149217959447363
732,160464168.62977559
826,0.0
843,61075504.06359731
923,903253649.1296554
947,903253649.1296554
972,0.0
997,985328.3472182319
2,3, 1, 3, 0, 5, 0.00,60.00,Wednesday
8,-5.011897641093955
10,361019421.29529038
922,967368584.9679649
2,3, 1, 3, 0, 5, 0.00,60.00,Wednesday
11,361019421.29529038
47,42868359.154904518
139,95499345.12764275
279,0.0
306,0.06059687183778945
330,0.06059687183778945
732,160464168.62977559
826,0.0
843,61075504.06359731
923,967368584.9679649
947,967368584.9679649
972,0.0
997,1112044.3193702254
2,3, 1, 3, 0, 6, 0.00,60.00,Wednesday
8,-5.348283325588144
10,394105146.6325959
922,915018656.1577216
2,3, 1, 3, 0, 6, 0.00,60.00,Wednesday
11,394105146.6325959
47,63805087.099239248
139,107722057.9402995
279,0.0
306,0.4090288849050788
330,0.4090288849050788
732,160464168.62977559
826,0.0
843,61075504.06359731
923,915018656.1577216
947,915018656.1577216
972,0.0
997,1038328.8996842635
2,3, 1, 3, 0, 7, 0.00,60.00,Wednesday
8,-5.654568022820762
10,845969210.7438625
922,952130572.8782603
2,3, 1, 3, 0, 7, 0.00,60.00,Wednesday
11,845969210.7438625
47,66796048.00759117
139,140037589.51312698
279,409838287.1624213
306,1.4240264881880523
330,1.4240264881880523
732,160464168.62977559
826,0.0
843,67739200.33518712
923,952130572.8782603
947,952130572.8782603
972,0.0
997,1093917.095760432
2,3, 1, 3, 0, 8, 0.00,60.00,Wednesday
8,-5.4788702207489179
10,675484029.4636582
922,877759096.17477
2,3, 1, 3, 0, 8, 0.00,60.00,Wednesday
11,675484029.4636582
47,63805087.099239248
139,176314760.12586237
279,206178990.65301947
306,1.5149217959447364
330,1.5149217959447364
732,160464168.62977559
826,0.0
843,67739200.33518712
923,877759096.17477
947,877759096.17477
972,0.0
997,981822.6205743454
2,3, 1, 3, 0, 9, 0.00,60.00,Wednesday
8,-5.78833505928885
10,799681173.1077987
922,737730725.1399819
2,3, 1, 3, 0, 9, 0.00,60.00,Wednesday
11,799681173.1077987
47,52964401.3728503
139,174381371.26805554
279,411101020.91265228
306,1.454324924106947
330,1.454324924106947
732,160464168.62977559
826,0.0
843,0.0
923,737730725.1399819
947,737730725.1399819
972,0.0
997,770210.9244650422
2,3, 1, 3, 0,10, 0.00,60.00,Wednesday
8,-6.360779300234708
10,582066447.0104966
922,1022670800.5192496
2,3, 1, 3, 0,10, 0.00,60.00,Wednesday
11,582066447.0104966
47,46982479.02752268
139,171683526.69399876
279,201760853.6828677
306,1.2725343085935786
330,1.2725343085935786
732,160464168.62977559
826,0.0
843,0.0
923,1022670800.5192496
947,1022670800.5192496
972,0.0
997,1175418.9763319996
2,3, 1, 3, 0,11, 0.00,60.00,Wednesday
8,-6.209417884049362
10,584554910.8847665
922,957001171.2110702
2,3, 1, 3, 0,11, 0.00,60.00,Wednesday
11,584554910.8847665
47,46982479.02752268
139,176572611.81906144
279,199431281.05395744
306,1.1513405649179996
330,1.1513405649179996
732,160464168.62977559
826,0.0
843,0.0
923,957001171.2110702
947,957001171.2110702
972,0.0
997,1104370.3544494005
2,3, 1, 3, 0,12, 0.00,60.00,Wednesday
8,-6.0824279633693039
10,584119431.757537
922,876765532.2086628
2,3, 1, 3, 0,12, 0.00,60.00,Wednesday
11,584119431.757537
47,46982479.02752268
139,180562134.55370135
279,195134834.73444797
306,0.9241022955262891
330,0.9241022955262891
732,160464168.62977559
826,0.0
843,0.0
923,876765532.2086628
947,876765532.2086628
972,0.0
997,975814.8120894824
2,3, 1, 3, 0,13, 0.00,60.00,Wednesday
8,-6.550193446183367
10,577642549.0339186
922,933850909.067831
2,3, 1, 3, 0,13, 0.00,60.00,Wednesday
11,577642549.0339186
47,45580250.94169688
139,177643641.4909061
279,192899703.6340816
306,0.8029085518507103
330,0.8029085518507103
732,160464168.62977559
826,0.0
843,0.0
923,933850909.067831
947,933850909.067831
972,0.0
997,1054784.337458397
2,3, 1, 3, 0,14, 0.00,60.00,Wednesday
8,-6.889542842120662
10,569024355.7592148
922,961183221.5617688
2,3, 1, 3, 0,14, 0.00,60.00,Wednesday
11,569024355.7592148
47,46982479.02752268
139,169238984.1314674
279,191237045.63775493
306,0.7120132440940261
330,0.7120132440940261
732,160464168.62977559
826,0.0
843,0.0
923,961183221.5617688
947,961183221.5617688
972,0.0
997,1101678.3326941264
2,3, 1, 3, 0,15, 0.00,60.00,Wednesday
8,-7.3508378156906419
10,564845996.33492
922,907205304.3606408
2,3, 1, 3, 0,15, 0.00,60.00,Wednesday
11,564845996.33492
47,46982479.02752268
139,166794441.56893606
279,189587173.07262833
306,0.6211179363373419
330,0.6211179363373419
732,160464168.62977559
826,0.0
843,0.0
923,907205304.3606408
947,907205304.3606408
972,0.0
997,1017734.0360573132
2,3, 1, 3, 0,16, 0.00,60.00,Wednesday
8,-7.469274250048447
10,585299203.5845485
922,903800069.857649
2,3, 1, 3, 0,16, 0.00,60.00,Wednesday
11,585299203.5845485
47,55955362.80982594
139,176721870.1575675
279,191154120.67856566
306,0.7120132440940261
330,0.7120132440940261
732,160464168.62977559
826,0.0
843,0.0
923,903800069.857649
947,903800069.857649
972,0.0
997,1003681.3088137376
2,3, 1, 3, 0,17, 0.00,60.00,Wednesday
8,-7.904415557688695
10,627505234.1411488
922,905246141.5461524
2,3, 1, 3, 0,17, 0.00,60.00,Wednesday
11,627505234.1411488
47,76892090.22553696
139,210136256.10456313
279,179008536.2485626
306,0.8332069877696051
330,0.8332069877696051
732,160464168.62977559
826,0.0
843,0.0
923,905246141.5461524
947,905246141.5461524
972,0.0
997,1004182.9327106829
2,3, 1, 3, 0,18, 0.00,60.00,Wednesday
8,-8.367190283489729
10,786569837.4638417
922,889743079.3395248
2,3, 1, 3, 0,18, 0.00,60.00,Wednesday
11,786569837.4638417
47,84741814.51495026
139,259492932.1082073
279,213147729.7385465
306,1.1058929110396576
330,1.1058929110396576
732,160464168.62977559
826,0.0
843,67739200.33518712
923,889743079.3395248
947,889743079.3395248
972,0.0
997,983992.1371748439
2,3, 1, 3, 0,19, 0.00,60.00,Wednesday
8,-8.255558329956174
10,784257866.923144
922,871976497.9211481
2,3, 1, 3, 0,19, 0.00,60.00,Wednesday
11,784257866.923144
47,105678542.45928499
139,247060984.00458647
279,202353701.20576868
306,1.3028327445124733
330,1.3028327445124733
732,160464168.62977559
826,0.0
843,67739200.33518712
923,871976497.9211481
947,871976497.9211481
972,0.0
997,961270.28854129
2,3, 1, 3, 0,20, 0.00,60.00,Wednesday
8,-8.816054925650735
10,780769474.6850873
922,741470451.1529204
2,3, 1, 3, 0,20, 0.00,60.00,Wednesday
11,780769474.6850873
47,120633348.05829214
139,229949186.066867
279,201211829.44768257
306,1.2422358726746839
330,1.2422358726746839
732,160464168.62977559
826,0.0
843,67739200.33518712
923,741470451.1529204
947,741470451.1529204
972,0.0
997,771742.1472830467
2,3, 1, 3, 0,21, 0.00,60.00,Wednesday
8,-8.816054925650735
10,973017036.1901753
922,760554144.7932502
2,3, 1, 3, 0,21, 0.00,60.00,Wednesday
11,973017036.1901753
47,120633348.05829214
139,225030226.7049352
279,398368213.088248
306,1.1361913469585523
330,1.1361913469585523
732,160464168.62977559
826,0.0
843,67739200.33518712
923,760554144.7932502
947,760554144.7932502
972,0.0
997,781879.3737372544
2,3, 1, 3, 0,22, 0.00,60.00,Wednesday
8,-10.14379348977496
10,725104048.0569749
922,760757349.1968474
2,3, 1, 3, 0,22, 0.00,60.00,Wednesday
11,725104048.0569749
47,90723736.86027786
139,210392845.56661619
279,195004946.1123515
306,0.9241022955262891
330,0.9241022955262891
732,160464168.62977559
826,0.0
843,67739200.33518712
923,760757349.1968474
947,760757349.1968474
972,0.0
997,779150.5527666034
2,3, 1, 3, 0,23, 0.00,60.00,Wednesday
8,-9.490273946420136
10,658846397.5583372
922,840985391.4435996
2,3, 1, 3, 0,23, 0.00,60.00,Wednesday
11,658846397.5583372
47,60814125.66226358
139,176169249.69117729
279,192771133.27004693
306,0.8029085518507103
330,0.8029085518507103
732,160464168.62977559
826,0.0
843,67739200.33518712
923,840985391.4435996
947,840985391.4435996
972,0.0
997,888519.9698867452
2,3, 1, 3, 0,24, 0.00,60.00,Wednesday
8,-9.592938811400991
10,413417781.1092585
922,876412194.1697787