Program Version,EnergyPlus, Version 9.1.0-08d2e308bb, YMD=2019.12.31 12:54
1,5,Environment Title[],Latitude[deg],Longitude[deg],Time Zone[],Elevation[m]
2,8,Day of Simulation[],Month[],Day of Month[],DST Indicator[1=yes 0=no],Hour[],StartMinute[],EndMinute[],DayType
3,5,Cumulative Day of Simulation[],Month[],Day of Month[],DST Indicator[1=yes 0=no],DayType  ! When Daily Report Variables Requested
4,2,Cumulative Days of Simulation[],Month[]  ! When Monthly Report Variables Requested
5,1,Cumulative Days of Simulation[] ! When Run Period Report Variables Requested
6,1,Calendar Year of Simulation[] ! When Annual Report Variables Requested
7,9,Environment,Site Outdoor Air Drybulb Temperature [C] !Monthly [Value,Min,Day,Hour,Minute,Max,Day,Hour,Minute]
8,1,Environment,Site Outdoor Air Wetbulb Temperature [C] !TimeStep
608,7,BUILDING STORY 1 THERMALZONE,Zone Air Relative Humidity [%] !Daily [Value,Min,Hour,Minute,Max,Hour,Minute]
647,7,BUILDING STORY 2 THERMALZONE,Zone Air Relative Humidity [%] !Daily [Value,Min,Hour,Minute,Max,Hour,Minute]
686,7,BUILDING STORY 3 THERMALZONE,Zone Air Relative Humidity [%] !Daily [Value,Min,Hour,Minute,Max,Hour,Minute]
725,7,BUILDING STORY 4 THERMALZONE,Zone Air Relative Humidity [%] !Daily [Value,Min,Hour,Minute,Max,Hour,Minute]
764,7,BUILDING STORY 5 THERMALZONE,Zone Air Relative Humidity [%] !Daily [Value,Min,Hour,Minute,Max,Hour,Minute]
803,7,BUILDING STORY 6 THERMALZONE,Zone Air Relative Humidity [%] !Daily [Value,Min,Hour,Minute,Max,Hour,Minute]
1347,1,Heating:Electricity [J] !Hourly
1322,1,Heating:Gas [J] !Hourly
1207,1,Cooling:Electricity [J] !Hourly
47,1,InteriorLights:Electricity [J] !Hourly
1131,1,ExteriorLights:Electricity [J] !Hourly
209,1,InteriorEquipment:Electricity [J] !Hourly
1101,1,Fans:Electricity [J] !Hourly
1372,1,Pumps:Electricity [J] !Hourly
1258,1,HeatRejection:Electricity [J] !Hourly
1283,1,HeatRejection:Water [m3] !Hourly
399,1,WaterSystems:Gas [J] !Hourly
450,1,WaterSystems:Water [m3] !Hourly
11,1,Electricity:Facility [J] !Hourly
375,1,Gas:Facility [J] !Hourly
426,1,Water:Facility [m3] !Hourly
10,1,Electricity:Facility [J] !TimeStep
374,1,Gas:Facility [J] !TimeStep
End of Data Dictionary
1,RUN PERIOD 1,  42.93, -78.73,  -5.00, 215.00
2,1, 1, 1, 0, 1, 0.00,60.00,Monday
8,-1.1802458087361237
10,679661339.3518391
374,400231842.0128558
2,1, 1, 1, 0, 1, 0.00,60.00,Monday
11,679661339.3518391
47,58596598.456062998
209,351579590.73637858
375,400231842.0128558
399,0.0
426,0.12430858931810601
450,0.0
1101,8811830.095032229
1131,124269734.55483864
1207,43746805.878533598
1258,1237592.603291857
1283,0.12430858931810601
1322,400231842.0128558
1347,0.0
1372,91419187.02770113
2,1, 1, 1, 0, 2, 0.00,60.00,Monday
8,-1.1802458087361237
10,534445923.74728026
374,0.0
2,1, 1, 1, 0, 2, 0.00,60.00,Monday
11,534445923.74728026
47,58596598.456062998
209,351579590.73637858
375,0.0
399,0.0
426,0.0
450,0.0
1101,0.0
1131,124269734.55483864
1207,0.0
1258,0.0
1283,0.0
1322,0.0
1347,0.0
1372,0.0
2,1, 1, 1, 0, 3, 0.00,60.00,Monday
8,-1.87387394903547
10,676945415.9488021
374,567411305.240991
2,1, 1, 1, 0, 3, 0.00,60.00,Monday
11,676945415.9488021
47,58596598.456062998
209,351579590.73637858
375,567411305.240991
399,0.0
426,0.13824543367356097
450,0.0
1101,8811830.095032229
1131,124269734.55483864
1207,40944583.76731048
1258,1154138.9632210632
1283,0.13824543367356097
1322,567411305.240991
1347,0.0
1372,91588939.37595795
2,1, 1, 1, 0, 4, 0.00,60.00,Monday
8,-1.5103272887722317
10,534445923.74728026
374,0.0
2,1, 1, 1, 0, 4, 0.00,60.00,Monday
11,534445923.74728026
47,58596598.456062998
209,351579590.73637858
375,0.0
399,0.0
426,0.0
450,0.0
1101,0.0
1131,124269734.55483864
1207,0.0
1258,0.0
1283,0.0
1322,0.0
1347,0.0
1372,0.0
2,1, 1, 1, 0, 5, 0.00,60.00,Monday
8,-1.665952381653312
10,654382479.955074
374,332853390.686287
2,1, 1, 1, 0, 5, 0.00,60.00,Monday
11,654382479.955074
47,58596598.456062998
209,351579590.73637858
375,332853390.686287
399,7222429.19861121
426,0.10014288113998028
450,0.0
1101,7343191.74586019
1131,124269734.55483864
1207,35457459.6383093
1258,994927.1117542635
1283,0.10014288113998028
1322,325630961.4876758
1347,0.0
1372,76140977.71187002
2,1, 1, 1, 0, 6, 0.00,60.00,Monday
8,-1.3944780310032846
10,751389935.03474
374,325519264.9221877
2,1, 1, 1, 0, 6, 0.00,60.00,Monday
11,751389935.03474
47,117193196.91212599
209,371362721.0335154
375,325519264.9221877
399,0.0
426,0.1424878234319667
450,0.0
1101,4108399.395812045
1131,124269734.55483864
1207,41933084.516395959
1258,1191162.0149873866
1283,0.1424878234319667
1322,325519264.9221877
1347,0.0
1372,91331636.60706455
2,1, 1, 1, 0, 7, 0.00,60.00,Monday
8,-1.1805889590406258
10,812118044.2949333
374,1052174276.1351365
2,1, 1, 1, 0, 7, 0.00,60.00,Monday
11,812118044.2949333
47,117193196.91212599
209,371362721.0335154
375,1052174276.1351365
399,45676510.663290869
426,0.2569054194463539
450,0.08207536775802918
1101,8811830.095032229
1131,131118192.48345293
1207,89124121.21180865
1258,2155061.5193335546
1283,0.17483005168832473
1322,1006497765.4718456
1347,0.0
1372,92352921.0396644
2,1, 1, 1, 0, 8, 0.00,60.00,Monday
8,-1.3944780310032846
10,991379002.1247455
374,2074906320.3904708
2,1, 1, 1, 0, 8, 0.00,60.00,Monday
11,991379002.1247455
47,351579590.7363779
209,465498976.80555877
375,2074906320.3904708
399,70773833.18864265
426,0.2227759982003648
450,0.2227759982003648
1101,40202952.22175793
1131,131118192.48345293
1207,0.0
1258,0.0
1283,0.0
1322,2004132487.201828
1347,0.0
1372,2979289.8775981545
2,1, 1, 1, 0, 9, 0.00,60.00,Monday
8,-1.665952381653312
10,1887842834.3927155
374,1445203509.054583
2,1, 1, 1, 0, 9, 0.00,60.00,Monday
11,1887842834.3927155
47,1054738772.2091339
209,791054079.1568515
375,1445203509.054583
399,111354943.07657016
426,0.41037683879014577
450,0.41037683879014577
1101,40202952.22175793
1131,0.0
1207,0.0
1258,0.0
1283,0.0
1322,1333848565.9780129
1347,0.0
1372,1847030.8049722897
2,1, 1, 1, 0,10, 0.00,60.00,Monday
8,-1.1802458087361237
10,1887473401.5787674
374,1244761391.712536
2,1, 1, 1, 0,10, 0.00,60.00,Monday
11,1887473401.5787674
47,1054738772.2091339
209,791054079.1568515
375,1244761391.712536
399,132337656.58450708
426,0.4455519964007296
450,0.4455519964007296
1101,40202952.22175793
1131,0.0
1207,0.0
1258,0.0
1283,0.0
1322,1112423735.128029
1347,0.0
1372,1477597.991024239
2,1, 1, 1, 0,11, 0.00,60.00,Monday
8,-0.9849379844004382
10,1887440279.9731158
374,1241503127.711811
2,1, 1, 1, 0,11, 0.00,60.00,Monday
11,1887440279.9731158
47,1054738772.2091339
209,791054079.1568515
375,1241503127.711811
399,127037042.037655
426,0.457277048937591
450,0.457277048937591
1101,40202952.22175794
1131,0.0
1207,0.0
1258,0.0
1283,0.0
1322,1114466085.6741563
1347,0.0
1372,1444476.3853724544
2,1, 1, 1, 0,12, 0.00,60.00,Monday
8,-0.818433687998716
10,1957995096.866774
374,1333310172.6041046
2,1, 1, 1, 0,12, 0.00,60.00,Monday
11,1957995096.866774
47,1054738772.2091339
209,861525962.562012
375,1333310172.6041046
399,156222336.12475265
426,0.5510774692324815
450,0.5510774692324815
1101,40202952.22175794
1131,0.0
1207,0.0
1258,0.0
1283,0.0
1322,1177087836.479352
1347,0.0
1372,1527409.8738705719
2,1, 1, 1, 0,13, 0.00,60.00,Monday
8,-0.598194072481827
10,1869964645.3269413
374,1264329193.7839084
2,1, 1, 1, 0,13, 0.00,60.00,Monday
11,1869964645.3269413
47,1054738772.2091339
209,773631064.8779174
375,1264329193.7839084
399,178859754.97987766
426,0.6683279946010945
450,0.6683279946010945
1101,40202952.22175794
1131,0.0
1207,0.0
1258,0.0
1283,0.0
1322,1085469438.8040307
1347,0.0
1372,1391856.018132404
2,1, 1, 1, 0,14, 0.00,60.00,Monday
8,-0.2717280594017997
10,1887168083.1443687
374,1115950515.4326215
2,1, 1, 1, 0,14, 0.00,60.00,Monday
11,1887168083.1443687
47,1054738772.2091339
209,791054079.1568515
375,1115950515.4326215
399,176487083.17661483
426,0.6331528369905107
450,0.6331528369905107
1101,40202952.22175794
1131,0.0
1207,0.0
1258,0.0
1283,0.0
1322,939463432.2560066
1347,0.0
1372,1172279.5566255977
2,1, 1, 1, 0,15, 0.00,60.00,Monday
8,-0.04571975547003023
10,1887059457.5231806
374,984784189.4211851
2,1, 1, 1, 0,15, 0.00,60.00,Monday
11,1887059457.5231806
47,1054738772.2091339
209,791054079.1568515
375,984784189.4211851
399,117842930.38771813
426,0.39865178625328448
450,0.39865178625328448
1101,40202952.22175794
1131,0.0
1207,0.0
1258,0.0
1283,0.0
1322,866941259.033467
1347,0.0
1372,1063653.935437271
2,1, 1, 1, 0,16, 0.00,60.00,Monday
8,-0.04535544602759805
10,1887166185.7926126
374,1065950761.3803785
2,1, 1, 1, 0,16, 0.00,60.00,Monday
11,1887166185.7926126
47,1054738772.2091339
209,791054079.1568515
375,1065950761.3803785
399,113012358.89131361
426,0.38692673371642319
450,0.38692673371642319
1101,40202952.22175794
1131,0.0
1207,0.0
1258,0.0
1283,0.0
1322,952938402.4890648
1347,0.0
1372,1170382.2048693724
2,1, 1, 1, 0,17, 0.00,60.00,Monday
8,-0.04535544602759805
10,1986601144.0902949
374,1093585649.2432368
2,1, 1, 1, 0,17, 0.00,60.00,Monday
11,1986601144.0902949
47,1054738772.2091339
209,890490964.3380251
375,1093585649.2432368
399,141823176.25089235
426,0.5159023116218976
450,0.5159023116218976
1101,40202952.22175794
1131,0.0
1207,0.0
1258,0.0
1283,0.0
1322,951762472.9923445
1347,0.0
1372,1168455.3213780574
2,1, 1, 1, 0,18, 0.00,60.00,Monday
8,-0.4337098548147795
10,1232585801.9838212
374,1307403118.9449726
2,1, 1, 1, 0,18, 0.00,60.00,Monday
11,1232585801.9838212
47,585965984.56063
209,473740119.6056166
375,1307403118.9449726
399,92982815.21116978
426,0.30485136595839409
450,0.30485136595839409
1101,40202952.22175794
1131,131118192.48345293
1207,0.0
1258,0.0
1283,0.0
1322,1214420303.7338029
1347,0.0
1372,1558553.1123636927
2,1, 1, 1, 0,19, 0.00,60.00,Monday
8,-1.0213911744465183
10,1027832116.5491794
374,972277712.3339521
2,1, 1, 1, 0,19, 0.00,60.00,Monday
11,1027832116.5491794
47,351579590.7363779
209,351579590.73637858
375,972277712.3339521
399,77335374.41759956
426,0.41160888363367489
450,0.24622610327408749
1101,8182413.659672781
1131,131118192.48345293
1207,97344731.6011953
1258,2330220.3350432689
1283,0.1653827803595874
1322,894942337.9163525
1347,0.0
1372,85697376.9970587
2,1, 1, 1, 0,20, 0.00,60.00,Monday
8,-1.1809288569695527
10,834331836.9968803
374,63317066.23506698
2,1, 1, 1, 0,20, 0.00,60.00,Monday
11,834331836.9968803
47,351579590.7363779
209,351579590.73637858
375,63317066.23506698
399,63317066.23506698
426,0.17587578805291963
450,0.17587578805291963
1101,0.0
1131,131118192.48345293
1207,0.0
1258,0.0
1283,0.0
1322,0.0
1347,0.0
1372,54463.04067100596
2,1, 1, 1, 0,21, 0.00,60.00,Monday
8,-1.5108130242800387
10,917898498.840911
374,1131418436.0130575
2,1, 1, 1, 0,21, 0.00,60.00,Monday
11,917898498.840911
47,234386393.82425199
209,351579590.73637858
375,1131418436.0130575
399,58790744.056884679
426,0.36778088870185468
450,0.19932589312664224
1101,8811830.095032225
1131,131118192.48345293
1207,97150858.20070963
1258,2317945.410542705
1283,0.16845499557521244
1322,1072627691.9561727
1347,0.0
1372,92533688.09054296
2,1, 1, 1, 0,22, 0.00,60.00,Monday
8,-1.6662902470607773
10,729680519.9378879
374,42763045.867735389
2,1, 1, 1, 0,22, 0.00,60.00,Monday
11,729680519.9378879
47,234386393.82425199
209,364121470.58951207
375,42763045.867735389
399,42763045.867735389
426,0.09380042029489046
450,0.09380042029489046
1101,0.0
1131,131118192.48345293
1207,0.0
1258,0.0
1283,0.0
1322,0.0
1347,0.0
1372,54463.04067100597
2,1, 1, 1, 0,23, 0.00,60.00,Monday
8,-1.874803504688023
10,714793703.268277
374,262073044.72811828
2,1, 1, 1, 0,23, 0.00,60.00,Monday
11,714793703.268277
47,117193196.91212599
209,351579590.73637858
375,262073044.72811828
399,28676685.139686735
426,0.1724411446609532
450,0.05862526268430652
1101,6608872.571274171
1131,131118192.48345293
1207,38671111.859886739
1258,1047174.1956278115
1283,0.11381588197664669
1322,233396359.58843155
1347,0.0
1372,68575564.50953092
2,1, 1, 1, 0,24, 0.00,60.00,Monday
8,-1.665952381653312
10,541348844.7165655
374,28705970.81544313
2,1, 1, 1, 0,24, 0.00,60.00,Monday
11,541348844.7165655
47,58596598.456062998
209,351579590.73637858
375,28705970.81544313
399,28705970.81544313
426,0.05862526268430655
450,0.05862526268430655
1101,0.0
1131,131118192.48345293
1207,0.0
1258,0.0
1283,0.0
1322,0.0
1347,0.0
1372,54463.04067100597
3,1, 1, 1, 0,Monday
608,30.70132087814416,26.345705885013734,13,60,34.85974496378228, 5,60
647,24.953416542930929,23.24884717468536, 6,60,27.574641157197143,18,24
686,25.31048363162918,24.375880625328635, 6,60,27.413392121699859,18,24
725,25.53815317138994,24.672256652395558,20,60,27.21974567026548,18,24
764,24.97563225392894,22.777347537908093, 6,60,27.804875095299676,18,24
803,26.956845952125549,20.707520401180735, 7,30,37.70512282903378, 2,59
2,2, 1, 2, 0, 1, 0.00,60.00,Tuesday
8,-2.450886200756528
10,679675511.9206371
374,423583123.38234469
2,2, 1, 2, 0, 1, 0.00,60.00,Tuesday
11,679675511.9206371
47,58596598.456062998
209,351579590.73637858
375,423583123.38234469
399,0.0
426,0.13767900814428536
450,0.0
1101,8811830.095032229
1131,124269734.55483864
1207,43778792.04032557
1258,1192705.5350583352
1283,0.13767900814428536
1322,423583123.38234469
1347,0.0
1372,91446260.50294076
2,2, 1, 2, 0, 2, 0.00,60.00,Tuesday
8,-2.248902511226617
10,534445923.74728026
374,7222550.559005465
2,2, 1, 2, 0, 2, 0.00,60.00,Tuesday
11,534445923.74728026
47,58596598.456062998
209,351579590.73637858
375,7222550.559005465
399,7222550.559005465
426,0.0
450,0.0
1101,0.0
1131,124269734.55483864
1207,0.0
1258,0.0
1283,0.0
1322,0.0
1347,0.0
1372,0.0
2,2, 1, 2, 0, 3, 0.00,60.00,Tuesday
8,-2.248902511226617
10,657161423.0406139
374,1004078825.7630524
2,2, 1, 2, 0, 3, 0.00,60.00,Tuesday
11,657161423.0406139
47,58596598.456062998
209,351579590.73637858
375,1004078825.7630524
399,0.0
426,0.09792848622500995
450,0.0
1101,8811830.095032227
1131,124269734.55483864
1207,35835155.51440501
1258,985937.6357120227
1283,0.09792848622500995
1322,1004078825.7630524
1347,0.0
1372,77082576.04818444
2,2, 1, 2, 0, 4, 0.00,60.00,Tuesday
8,-1.665952381653312
10,534445923.74728026
374,0.0
2,2, 1, 2, 0, 4, 0.00,60.00,Tuesday
11,534445923.74728026
47,58596598.456062998
209,351579590.73637858
375,0.0
399,0.0
426,0.0
450,0.0
1101,0.0
1131,124269734.55483864
1207,0.0
1258,0.0
1283,0.0
1322,0.0
1347,0.0
1372,0.0
2,2, 1, 2, 0, 5, 0.00,60.00,Tuesday
8,-2.8216230582487005
10,664312827.2152617
374,766879163.641743
2,2, 1, 2, 0, 5, 0.00,60.00,Tuesday
11,664312827.2152617
47,58596598.456062998
209,351579590.73637858
375,766879163.641743
399,0.0
426,0.2483945738225822
450,0.0
1101,8811830.095032225
1131,124269734.55483864
1207,38192586.6213655
1258,1035485.943085035
1283,0.2483945738225822
1322,766879163.641743
1347,0.0
1372,81827000.80849853
2,2, 1, 2, 0, 6, 0.00,60.00,Tuesday
8,-1.665952381653312
10,751495407.6809138
374,275492861.09998139
2,2, 1, 2, 0, 6, 0.00,60.00,Tuesday
11,751495407.6809138
47,117193196.91212599
209,371362721.0335154
375,275492861.09998139
399,0.0
426,0.11961072589367183
450,0.0
1101,4108399.395812044
1131,124269734.55483864
1207,42070452.658103968
1258,1184032.8860292466
1283,0.11961072589367183
1322,275492861.09998139
1347,0.0
1372,91306870.24048856
2,2, 1, 2, 0, 7, 0.00,60.00,Tuesday
8,-1.665952381653312
10,775919032.4415689
374,1138456553.8364673
2,2, 1, 2, 0, 7, 0.00,60.00,Tuesday
11,775919032.4415689
47,117193196.91212599
209,371362721.0335154
375,1138456553.8364673
399,47000205.74811276
426,0.21452200556269486
450,0.08207536775802919
1101,8811830.095032229
1131,131118192.48345293
1207,53472700.692997019
1258,1409973.713611285
1283,0.13244663780466568
1322,1091456348.0883547
1347,0.0
1372,92550417.51083413
2,2, 1, 2, 0, 8, 0.00,60.00,Tuesday
8,-1.66561355779768
10,991827562.4182597
374,2279664393.7375037
2,2, 1, 2, 0, 8, 0.00,60.00,Tuesday
11,991827562.4182597
47,351579590.7363779
209,465498976.80555877
375,2279664393.7375037
399,70722129.89881775
426,0.2227759982003648
450,0.2227759982003648
1101,40202952.22175793
1131,131118192.48345293
1207,0.0
1258,0.0
1283,0.0
1322,2208942263.838686
1347,0.0
1372,3427850.1711124798
2,2, 1, 2, 0, 9, 0.00,60.00,Tuesday
8,-1.66561355779768
10,1888630255.5643819
374,1823506274.45406
2,2, 1, 2, 0, 9, 0.00,60.00,Tuesday
11,1888630255.5643819
47,1054738772.2091339
209,791054079.1568515
375,1823506274.45406
399,117496844.32540559
426,0.4103768387901457
450,0.4103768387901457
1101,40202952.22175793
1131,0.0
1207,0.0
1258,0.0
1283,0.0
1322,1706009430.1286545
1347,0.0
1372,2634451.976638721
2,2, 1, 2, 0,10, 0.00,60.00,Tuesday
8,-1.1802458087361237
10,1888255227.5941394
374,1633810265.6158794
2,2, 1, 2, 0,10, 0.00,60.00,Tuesday
11,1888255227.5941394
47,1054738772.2091339
209,791054079.1568515
375,1633810265.6158794
399,129349934.93793646
426,0.4455519964007296
450,0.4455519964007296
1101,40202952.22175793
1131,0.0
1207,0.0
1258,0.0
1283,0.0
1322,1504460330.6779428
1347,0.0
1372,2259424.0063962389
2,2, 1, 2, 0,11, 0.00,60.00,Tuesday
8,-1.1799047350000767
10,1888020104.5869868
374,1537609143.4092882
2,2, 1, 2, 0,11, 0.00,60.00,Tuesday
11,1888020104.5869868
47,1054738772.2091339
209,791054079.1568515
375,1537609143.4092882
399,126207708.86391136
426,0.457277048937591
450,0.457277048937591
1101,40202952.22175794
1131,0.0
1207,0.0
1258,0.0
1283,0.0
1322,1411401434.5453768
1347,0.0
1372,2024300.9992436898
2,2, 1, 2, 0,12, 0.00,60.00,Tuesday
8,-0.817959937909318
10,1958109752.1515184
374,1370357697.0152379
2,2, 1, 2, 0,12, 0.00,60.00,Tuesday
11,1958109752.1515184
47,1054738772.2091339
209,861525962.562012
375,1370357697.0152379
399,153825517.85096828
426,0.5510774692324815
450,0.5510774692324815
1101,40202952.22175794
1131,0.0
1207,0.0
1258,0.0
1283,0.0
1322,1216532179.1642695
1347,0.0
1372,1642065.1586146663
2,2, 1, 2, 0,13, 0.00,60.00,Tuesday
8,-0.9843616670581066
10,1870222451.4177523
374,1426260809.9642847
2,2, 1, 2, 0,13, 0.00,60.00,Tuesday
11,1870222451.4177523
47,1054738772.2091339
209,773631064.8779174
375,1426260809.9642847
399,184321364.0823467
426,0.6683279946010945
450,0.6683279946010945
1101,40202952.22175794
1131,0.0
1207,0.0
1258,0.0
1283,0.0
1322,1241939445.881938
1347,0.0
1372,1649662.1089433544
2,2, 1, 2, 0,14, 0.00,60.00,Tuesday
8,-0.817959937909318
10,1887595797.602297
374,1385867760.9296306
2,2, 1, 2, 0,14, 0.00,60.00,Tuesday
11,1887595797.602297
47,1054738772.2091339
209,791054079.1568515
375,1385867760.9296306
399,173123008.40318037
426,0.6331528369905107
450,0.6331528369905107
1101,40202952.22175794
1131,0.0
1207,0.0
1258,0.0
1283,0.0
1322,1212744752.5264502
1347,0.0
1372,1599994.0145538899
2,2, 1, 2, 0,15, 0.00,60.00,Tuesday
8,-0.5975033634303576
10,1887382952.7756458
374,1200572381.8546758
2,2, 1, 2, 0,15, 0.00,60.00,Tuesday
11,1887382952.7756458
47,1054738772.2091339
209,791054079.1568515
375,1200572381.8546758
399,123131644.37466002
426,0.39865178625328448
450,0.39865178625328448
1101,40202952.22175794
1131,0.0
1207,0.0
1258,0.0
1283,0.0
1322,1077440737.4800158
1347,0.0
1372,1387149.187902583
2,2, 1, 2, 0,16, 0.00,60.00,Tuesday
8,-0.5971565962370674
10,1887354164.7430406
374,1174814620.42154
2,2, 1, 2, 0,16, 0.00,60.00,Tuesday
11,1887354164.7430406
47,1054738772.2091339
209,791054079.1568515
375,1174814620.42154
399,108008465.7771185
426,0.38692673371642319
450,0.38692673371642319
1101,40202952.22175794
1131,0.0
1207,0.0
1258,0.0
1283,0.0
1322,1066806154.6444216
1347,0.0
1372,1358361.1552972955
2,2, 1, 2, 0,17, 0.00,60.00,Tuesday
8,-0.5971565962370674
10,1986851070.6245089
374,1253065932.0734845
2,2, 1, 2, 0,17, 0.00,60.00,Tuesday
11,1986851070.6245089
47,1054738772.2091339
209,890490964.3380251
375,1253065932.0734845
399,142969898.5657084
426,0.5159023116218976
450,0.5159023116218976
1101,40202952.22175794
1131,0.0
1207,0.0
1258,0.0
1283,0.0
1322,1110096033.507776
1347,0.0
1372,1418381.8555921233
2,2, 1, 2, 0,18, 0.00,60.00,Tuesday
8,-1.1795657539051999
10,1232883257.2031575
374,1466695825.753467
2,2, 1, 2, 0,18, 0.00,60.00,Tuesday
11,1232883257.2031575
47,585965984.56063
209,473740119.6056166
375,1466695825.753467
399,92478306.61881322
426,0.30485136595839409
450,0.30485136595839409
1101,40202952.22175794
1131,131118192.48345293
1207,0.0
1258,0.0
1283,0.0
1322,1374217519.1346539
1347,0.0
1372,1856008.331699899
2,2, 1, 2, 0,19, 0.00,60.00,Tuesday
8,-1.020404023167408
10,1019014905.6142567
374,791182522.9918898
2,2, 1, 2, 0,19, 0.00,60.00,Tuesday
11,1019014905.6142567
47,351579590.7363779
209,351579590.73637858
375,791182522.9918898
399,84197681.18120942
426,0.4022487627146351
450,0.2462261032740875
1101,8010754.631847479
1131,131118192.48345293
1207,90900616.74427629
1258,2179512.306102286
1283,0.1560226594405476
1322,706984841.8106804
1347,0.0
1372,83646647.97582148
2,2, 1, 2, 0,20, 0.00,60.00,Tuesday
8,-1.6649382965486524
10,834331836.9968803
374,56963067.03486419
2,2, 1, 2, 0,20, 0.00,60.00,Tuesday
11,834331836.9968803
47,351579590.7363779
209,351579590.73637858
375,56963067.03486419
399,56963067.03486419
426,0.17587578805291965
450,0.17587578805291965
1101,0.0
1131,131118192.48345293
1207,0.0
1258,0.0
1283,0.0
1322,0.0
1347,0.0
1372,54463.04067100597
2,2, 1, 2, 0,21, 0.00,60.00,Tuesday
8,-2.0970481657497048
10,917343778.3906419
374,1145930341.0373114
2,2, 1, 2, 0,21, 0.00,60.00,Tuesday
11,917343778.3906419
47,234386393.82425199
209,351579590.73637858
375,1145930341.0373114
399,64231483.68145457
426,0.36388003728805476
450,0.19932589312664227
1101,8811830.095032229
1131,131118192.48345293
1207,96678833.94164835
1258,2270128.7263324034
1283,0.1645541441614125
1322,1081698857.3558567
1347,0.0
1372,92498808.58354536
2,2, 1, 2, 0,22, 0.00,60.00,Tuesday
8,-2.448595400822192
10,729680519.9378879
374,38025119.37878973
2,2, 1, 2, 0,22, 0.00,60.00,Tuesday
11,729680519.9378879
47,234386393.82425199
209,364121470.58951207
375,38025119.37878973
399,38025119.37878973
426,0.0938004202948905
450,0.0938004202948905
1101,0.0
1131,131118192.48345293
1207,0.0
1258,0.0
1283,0.0
1322,0.0
1347,0.0
1372,54463.040671005976
2,2, 1, 2, 0,23, 0.00,60.00,Tuesday
8,-3.0766921149082706
10,718455335.3621463
374,217019532.44493879
2,2, 1, 2, 0,23, 0.00,60.00,Tuesday
11,718455335.3621463
47,117193196.91212599
209,351579590.73637858
375,217019532.44493879
399,32722129.133216405
426,0.18124649112287098
450,0.058625262684306549
1101,6853645.629469508
1131,131118192.48345293
1207,39635774.96647827
1258,1040695.344054125
1283,0.12262122843856444
1322,184297403.31172238
1347,0.0
1372,71034239.29018691
2,2, 1, 2, 0,24, 0.00,60.00,Tuesday
8,-3.0766921149082706
10,541348844.7165655
374,24510017.361637635
2,2, 1, 2, 0,24, 0.00,60.00,Tuesday
11,541348844.7165655
47,58596598.456062998
209,351579590.73637858
375,24510017.361637635
399,24510017.361637635
426,0.058625262684306529
450,0.058625262684306529
1101,0.0
1131,131118192.48345293
1207,0.0
1258,0.0
1283,0.0
1322,0.0
1347,0.0
1372,54463.04067100596
3,2, 1, 2, 0,Tuesday
608,30.178746405586865,26.03526622913143,14,60,34.88320976810112, 4,48
647,24.214939596441299,22.600468104780899, 6,59,26.637668737725247,18,24
686,24.782075749765146,23.673643194893918, 9,15,26.68724926783935,18,24
725,25.037766203956946,23.468281064543285, 8,60,26.53061209915345,18,24
764,24.201178726137007,22.109460577105805, 5,59,26.867653876839865,18,24
803,26.478641216483767,21.05154517529253, 9,22,40.532106355777809, 2,60
2,3, 1, 3, 0, 1, 0.00,60.00,Wednesday
8,-3.8400849580777196
10,680103793.3841456
374,705931107.6238567
2,3, 1, 3, 0, 1, 0.00,60.00,Wednesday
11,680103793.3841456
47,58596598.456062998
209,351579590.73637858
375,705931107.6238567
399,7222449.57658248
426,0.16296969497392584
450,0.0
1101,8811830.095032229
1131,124269734.55483864
1207,43889030.57144241
1258,1151996.8260441733
1283,0.16296969497392584
1322,698708658.0472742
1347,0.0
1372,91805012.14434666
2,3, 1, 3, 0, 2, 0.00,60.00,Wednesday
8,-3.839424890680984
10,534445923.74728026
374,0.0
2,3, 1, 3, 0, 2, 0.00,60.00,Wednesday
11,534445923.74728026
47,58596598.456062998
209,351579590.73637858
375,0.0
399,0.0
426,0.0
450,0.0
1101,0.0
1131,124269734.55483864
1207,0.0
1258,0.0
1283,0.0
1322,0.0
1347,0.0
1372,0.0
2,3, 1, 3, 0, 3, 0.00,60.00,Wednesday
8,-4.1712791770681749
10,677755892.0715743
374,505942490.7163562
2,3, 1, 3, 0, 3, 0.00,60.00,Wednesday
11,677755892.0715743
47,58596598.456062998
209,351579590.73637858
375,505942490.7163562
399,0.0
426,0.1433953388347599
450,0.0
1101,8811830.095032229
1131,124269734.55483864
1207,41845103.741327177
1258,1102285.4163838048
1283,0.1433953388347599
1322,505942490.7163562
1347,0.0
1372,91550749.07155079
2,3, 1, 3, 0, 4, 0.00,60.00,Wednesday
8,-4.310274787688259
10,534445923.74728026
374,0.0
2,3, 1, 3, 0, 4, 0.00,60.00,Wednesday
11,534445923.74728026
47,58596598.456062998
209,351579590.73637858
375,0.0
399,0.0
426,0.0
450,0.0
1101,0.0
1131,124269734.55483864
1207,0.0
1258,0.0
1283,0.0
1322,0.0
1347,0.0
1372,0.0
2,3, 1, 3, 0, 5, 0.00,60.00,Wednesday
8,-5.011897641093955
10,649369278.779952
374,1068854443.8750599
2,3, 1, 3, 0, 5, 0.00,60.00,Wednesday
11,649369278.779952
47,58596598.456062998
209,351579590.73637858
375,1068854443.8750599
399,0.0
426,0.12913783506768015
450,0.0
1101,8811830.095032225
1131,124269734.55483864
1207,33137806.350429994
1258,851090.2997383862
1283,0.12913783506768015
1322,1068854443.8750599
1347,0.0
1372,72122628.28747116
2,3, 1, 3, 0, 6, 0.00,60.00,Wednesday
8,-5.348283325588144
10,836958683.6568506
374,553926917.4555016
2,3, 1, 3, 0, 6, 0.00,60.00,Wednesday
11,836958683.6568506
47,117193196.91212599
209,371362721.0335154
375,553926917.4555016
399,7222529.71955528
426,0.22374386064177077
450,0.0
1101,11363296.081343499
1131,124269734.55483864
1207,118599826.59701663
1258,2466806.1997225799
1283,0.22374386064177077
1322,546704387.7359463
1347,0.0
1372,91703102.27828786
2,3, 1, 3, 0, 7, 0.00,60.00,Wednesday
8,-5.654568022820762
10,752920037.9387667
374,1150339200.6569012
2,3, 1, 3, 0, 7, 0.00,60.00,Wednesday
11,752920037.9387667
47,117193196.91212599
209,371362721.0335154
375,1150339200.6569012
399,45056551.138701129
426,0.2452253005881162
450,0.08207536775802917
1101,8811830.095032225
1131,131118192.48345293
1207,40932036.09051052
1258,1038326.768117426
1283,0.16314993283008706
1322,1105282649.5182
1347,0.0
1372,82463734.55601214
2,3, 1, 3, 0, 8, 0.00,60.00,Wednesday
8,-5.4788702207489179
10,992973209.0830609
374,2758582049.6250727
2,3, 1, 3, 0, 8, 0.00,60.00,Wednesday
11,992973209.0830609
47,351579590.7363779
209,465498976.80555877
375,2758582049.6250727
399,70040054.15635534
426,0.2227759982003648
450,0.2227759982003648
1101,40202952.22175793
1131,131118192.48345293
1207,0.0
1258,0.0
1283,0.0
1322,2688541995.468717
1347,0.0
1372,4573496.835913584
2,3, 1, 3, 0, 9, 0.00,60.00,Wednesday
8,-5.78833505928885
10,1889713289.1478179
374,2230899640.844651
2,3, 1, 3, 0, 9, 0.00,60.00,Wednesday
11,1889713289.1478179
47,1054738772.2091339
209,791054079.1568515
375,2230899640.844651
399,113077028.04509475
426,0.41037683879014588
450,0.41037683879014588
1101,40202952.22175793
1131,0.0
1207,0.0
1258,0.0
1283,0.0
1322,2117822612.7995563
1347,0.0
1372,3717485.5600746816
2,3, 1, 3, 0,10, 0.00,60.00,Wednesday
8,-6.360779300234708
10,1889831040.1134439
374,2233644893.8104255
2,3, 1, 3, 0,10, 0.00,60.00,Wednesday
11,1889831040.1134439
47,1054738772.2091339
209,791054079.1568515
375,2233644893.8104255
399,130083356.0363718
426,0.4455519964007297
450,0.4455519964007297
1101,40202952.22175794
1131,0.0
1207,0.0
1258,0.0
1283,0.0
1322,2103561537.7740536
1347,0.0
1372,3835236.5257007677
2,3, 1, 3, 0,11, 0.00,60.00,Wednesday
8,-6.209417884049362
10,1889642790.1904762
374,2147774816.0313379
2,3, 1, 3, 0,11, 0.00,60.00,Wednesday
11,1889642790.1904762
47,1054738772.2091339
209,791054079.1568515
375,2147774816.0313379
399,130116273.41689465
426,0.457277048937591
450,0.457277048937591
1101,40202952.22175794
1131,0.0
1207,0.0
1258,0.0
1283,0.0
1322,2017658542.6144434
1347,0.0
1372,3646986.60273315
2,3, 1, 3, 0,12, 0.00,60.00,Wednesday
8,-6.0824279633693039
10,1960011052.7326318
374,2139473601.7736564
2,3, 1, 3, 0,12, 0.00,60.00,Wednesday
11,1960011052.7326318
47,1054738772.2091339
209,861525962.562012
375,2139473601.7736564
399,156962402.93318985
426,0.5510774692324814
450,0.5510774692324814
1101,40202952.22175793
1131,0.0
1207,0.0
1258,0.0
1283,0.0
1322,1982511198.8404666
1347,0.0
1372,3543365.7397281706
2,3, 1, 3, 0,13, 0.00,60.00,Wednesday
8,-6.550193446183367
10,1872122501.5347403
374,2164961964.1516387
2,3, 1, 3, 0,13, 0.00,60.00,Wednesday
11,1872122501.5347403
47,1054738772.2091339
209,773631064.8779174
375,2164961964.1516387
399,176661489.8691937
426,0.6683279946010945
450,0.6683279946010945
1101,40202952.22175794
1131,0.0
1207,0.0
1258,0.0
1283,0.0
1322,1988300474.282445
1347,0.0
1372,3549712.225931402
2,3, 1, 3, 0,14, 0.00,60.00,Wednesday
8,-6.889542842120662
10,1889756022.230734
374,2238839398.45058
2,3, 1, 3, 0,14, 0.00,60.00,Wednesday
11,1889756022.230734
47,1054738772.2091339
209,791054079.1568515
375,2238839398.45058
399,180793794.4291128
426,0.6331528369905107
450,0.6331528369905107
1101,40202952.22175794
1131,0.0
1207,0.0
1258,0.0
1283,0.0
1322,2058045604.0214673
1347,0.0
1372,3760218.642990984
2,3, 1, 3, 0,15, 0.00,60.00,Wednesday
8,-7.3508378156906419
10,1889579895.1100879
374,2094478758.497303
2,3, 1, 3, 0,15, 0.00,60.00,Wednesday
11,1889579895.1100879
47,1054738772.2091339
209,791054079.1568515
375,2094478758.497303
399,111801336.24810398
426,0.39865178625328448
450,0.39865178625328448
1101,40202952.22175794
1131,0.0
1207,0.0
1258,0.0
1283,0.0
1322,1982677422.249199
1347,0.0
1372,3584091.5223446248
2,3, 1, 3, 0,16, 0.00,60.00,Wednesday
8,-7.469274250048447
10,1889385538.8659166
374,2032356960.6580106
2,3, 1, 3, 0,16, 0.00,60.00,Wednesday
11,1889385538.8659166
47,1054738772.2091339
209,791054079.1568515
375,2032356960.6580106
399,119090498.77102305
426,0.38692673371642319
450,0.38692673371642319
1101,40202952.22175794
1131,0.0
1207,0.0
1258,0.0
1283,0.0
1322,1913266461.8869875
1347,0.0
1372,3389735.2781732946
2,3, 1, 3, 0,17, 0.00,60.00,Wednesday
8,-7.904415557688695
10,1989013062.8284026
374,2122342517.0813463
2,3, 1, 3, 0,17, 0.00,60.00,Wednesday
11,1989013062.8284026
47,1054738772.2091339
209,890490964.3380251
375,2122342517.0813463
399,142764661.64881734