Program Version,EnergyPlus, Version 9.1.0-08d2e308bb, YMD=2019.12.31 12:58
1,5,Environment Title[],Latitude[deg],Longitude[deg],Time Zone[],Elevation[m]
2,8,Day of Simulation[],Month[],Day of Month[],DST Indicator[1=yes 0=no],Hour[],StartMinute[],EndMinute[],DayType
3,5,Cumulative Day of Simulation[],Month[],Day of Month[],DST Indicator[1=yes 0=no],DayType  ! When Daily Report Variables Requested
4,2,Cumulative Days of Simulation[],Month[]  ! When Monthly Report Variables Requested
5,1,Cumulative Days of Simulation[] ! When Run Period Report Variables Requested
6,1,Calendar Year of Simulation[] ! When Annual Report Variables Requested
7,9,Environment,Site Outdoor Air Drybulb Temperature [C] !Monthly [Value,Min,Day,Hour,Minute,Max,Day,Hour,Minute]
8,1,Environment,Site Outdoor Air Wetbulb Temperature [C] !TimeStep
708,1,BUILDING STORY 1 THERMALZONE,Zone Air Temperature [C] !Hourly
709,7,BUILDING STORY 1 THERMALZONE,Zone Air Relative Humidity [%] !Daily [Value,Min,Hour,Minute,Max,Hour,Minute]
748,1,BUILDING STORY 2 THERMALZONE,Zone Air Temperature [C] !Hourly
749,7,BUILDING STORY 2 THERMALZONE,Zone Air Relative Humidity [%] !Daily [Value,Min,Hour,Minute,Max,Hour,Minute]
788,1,BUILDING STORY 3 THERMALZONE,Zone Air Temperature [C] !Hourly
789,7,BUILDING STORY 3 THERMALZONE,Zone Air Relative Humidity [%] !Daily [Value,Min,Hour,Minute,Max,Hour,Minute]
11,1,Electricity:Facility [J] !TimeStep
243,1,Gas:Facility [J] !TimeStep
End of Data Dictionary
1,BUFFALO NIAGARA INTL AP ANN CLG .4% CONDNS DB=>MWB,  42.93, -78.73,  -5.00, 215.00
2,1, 7,21, 0, 1, 0.00,60.00,SummerDesignDay
8,19.36840579326866
11,4809897980.823143
243,893097542.080622
2,1, 7,21, 0, 1, 0.00,60.00,SummerDesignDay
708,23.999473340372878
748,23.99769069191319
788,23.996705414870758
2,1, 7,21, 0, 2, 0.00,60.00,SummerDesignDay
8,19.25226217922265
11,4799838231.599326
243,905163639.0144663
2,1, 7,21, 0, 2, 0.00,60.00,SummerDesignDay
708,23.99945726310637
748,23.99765820042605
788,23.996794709868298
2,1, 7,21, 0, 3, 0.00,60.00,SummerDesignDay
8,19.164819553782637
11,4784727766.272791
243,896619871.9163916
2,1, 7,21, 0, 3, 0.00,60.00,SummerDesignDay
708,23.99944995824581
748,23.997631460726717
788,23.99684591203814
2,1, 7,21, 0, 4, 0.00,60.00,SummerDesignDay
8,19.0770792448193
11,4772812066.230302
243,901640120.5073743
2,1, 7,21, 0, 4, 0.00,60.00,SummerDesignDay
708,23.99944485515662
748,23.99761304450625
788,23.99688620646196
2,1, 7,21, 0, 5, 0.00,60.00,SummerDesignDay
8,19.018427637799467
11,4767683360.877696
243,900139551.7523794
2,1, 7,21, 0, 5, 0.00,60.00,SummerDesignDay
708,23.999440032282338
748,23.997599323149147
788,23.996908878487614
2,1, 7,21, 0, 6, 0.00,60.00,SummerDesignDay
8,19.0770792448193
11,4726083263.6257519
243,898122696.7567883
2,1, 7,21, 0, 6, 0.00,60.00,SummerDesignDay
708,23.99938572822519
748,23.997556410739255
788,23.996687038873174
2,1, 7,21, 0, 7, 0.00,60.00,SummerDesignDay
8,19.281346189070228
11,4817276285.891792
243,903655136.1555458
2,1, 7,21, 0, 7, 0.00,60.00,SummerDesignDay
708,23.999238535353734
748,23.997437353819757
788,23.996085687087708
2,1, 7,21, 0, 8, 0.00,60.00,SummerDesignDay
8,19.770887505670989
11,4953830893.1830439
243,910347608.1372571
2,1, 7,21, 0, 8, 0.00,60.00,SummerDesignDay
708,23.99905624608872
748,23.997296241074577
788,23.995170767661024
2,1, 7,21, 0, 9, 0.00,60.00,SummerDesignDay
8,20.30732185289352
11,5087609863.608114
243,918709163.9585877
2,1, 7,21, 0, 9, 0.00,60.00,SummerDesignDay
708,23.998969849206675
748,23.99722984592334
788,23.99434606171831
2,1, 7,21, 0,10, 0.00,60.00,SummerDesignDay
8,20.778037156782458
11,5195684457.4574589
243,928085081.3177395
2,1, 7,21, 0,10, 0.00,60.00,SummerDesignDay
708,23.999027251369076
748,23.9972434740968
788,23.993820449678993
2,1, 7,21, 0,11, 0.00,60.00,SummerDesignDay
8,21.186337137460165
11,5272386188.7418589
243,936536295.384364
2,1, 7,21, 0,11, 0.00,60.00,SummerDesignDay
708,23.9991898762011
748,23.997316049034894
788,23.9935868207552
2,1, 7,21, 0,12, 0.00,60.00,SummerDesignDay
8,21.45495938709981
11,5307758595.380921
243,936377189.7691966
2,1, 7,21, 0,12, 0.00,60.00,SummerDesignDay
708,23.999387468392578
748,23.99742503670496
788,23.993526490447377
2,1, 7,21, 0,13, 0.00,60.00,SummerDesignDay
8,21.667839996742449
11,5334875988.179432
243,932696610.4990965
2,1, 7,21, 0,13, 0.00,60.00,SummerDesignDay
708,23.999517440863284
748,23.99751623138587
788,23.993403983668107
2,1, 7,21, 0,14, 0.00,60.00,SummerDesignDay
8,21.799990419629109
11,5389036218.68375
243,931138867.6726832
2,1, 7,21, 0,14, 0.00,60.00,SummerDesignDay
708,23.99949538130083
748,23.997537382611026
788,23.993319887956319
2,1, 7,21, 0,15, 0.00,60.00,SummerDesignDay
8,21.799990419629109
11,5398881497.668478
243,940627293.1326743
2,1, 7,21, 0,15, 0.00,60.00,SummerDesignDay
708,23.9994082436685
748,23.997532641911055
788,23.993324135391519
2,1, 7,21, 0,16, 0.00,60.00,SummerDesignDay
8,21.641326796728476
11,5364207617.818022
243,928044317.4926323
2,1, 7,21, 0,16, 0.00,60.00,SummerDesignDay
708,23.99937675947967
748,23.99755296609869
788,23.99352549250712
2,1, 7,21, 0,17, 0.00,60.00,SummerDesignDay
8,21.42822317147698
11,5302622907.781606
243,923370232.1073823
2,1, 7,21, 0,17, 0.00,60.00,SummerDesignDay
708,23.999405151226229
748,23.997586890407296
788,23.9938053049924
2,1, 7,21, 0,18, 0.00,60.00,SummerDesignDay
8,21.15931786227956
11,5204272500.113549
243,912518993.6197594
2,1, 7,21, 0,18, 0.00,60.00,SummerDesignDay
708,23.9994824685104
748,23.997637022872686
788,23.994166961557619
2,1, 7,21, 0,19, 0.00,60.00,SummerDesignDay
8,20.750583661392644
11,5083712160.151401
243,897863957.2551137
2,1, 7,21, 0,19, 0.00,60.00,SummerDesignDay
708,23.999617832214267
748,23.997729322334778
788,23.994660667192556
2,1, 7,21, 0,20, 0.00,60.00,SummerDesignDay
8,20.446661088459409
11,4947974839.483324
243,906789775.2004312
2,1, 7,21, 0,20, 0.00,60.00,SummerDesignDay
708,23.999782166504276
748,23.997848077219737
788,23.995373697590588
2,1, 7,21, 0,21, 0.00,60.00,SummerDesignDay
8,20.19530361990708
11,4957765498.474208
243,903289314.1449109
2,1, 7,21, 0,21, 0.00,60.00,SummerDesignDay
708,23.999875529036687
748,23.997926937343445
788,23.99585393430208
2,1, 7,21, 0,22, 0.00,60.00,SummerDesignDay
8,19.941485234887624
11,4906302933.430518
243,898147790.4302932
2,1, 7,21, 0,22, 0.00,60.00,SummerDesignDay
708,23.999772493152837
748,23.99786966695976
788,23.996150994868825
2,1, 7,21, 0,23, 0.00,60.00,SummerDesignDay
8,19.7423381019073
11,4875162154.468965
243,903630048.4057926
2,1, 7,21, 0,23, 0.00,60.00,SummerDesignDay
708,23.999621344850849
748,23.997787391909545
788,23.99637633844704
2,1, 7,21, 0,24, 0.00,60.00,SummerDesignDay
8,19.54165603023991
11,4841880701.142947
243,894637895.7978369
2,1, 7,21, 0,24, 0.00,60.00,SummerDesignDay
708,23.9995190815881
748,23.99772969739007
788,23.99656236298233
3,1, 7,21, 0,SummerDesignDay
709,47.043013278380808,45.940079679246419,17,60,48.17817956989122, 5,60
749,46.445255962189957,46.04886222334404,16,60,46.86099746872973, 5,60
789,53.39765128379671,52.04970272846512,16,60,55.227013024412247, 6,60
4,1, 7
7,25.312875000000003,21.0,21, 5,60,30.3,21,14,60
1,BUFFALO NIAGARA INTL AP ANN CLG .4% CONDNS WB=>MDB,  42.93, -78.73,  -5.00, 215.00
2,1, 7,21, 0, 1, 0.00,60.00,SummerDesignDay
8,19.615996954992807
11,4789911726.71686
243,893097542.080622
2,1, 7,21, 0, 1, 0.00,60.00,SummerDesignDay
708,23.999417349081658
748,23.997290607198417
788,23.99521280321708
2,1, 7,21, 0, 2, 0.00,60.00,SummerDesignDay
8,19.243988037109376
11,4763709324.530253
243,905163639.0144663
2,1, 7,21, 0, 2, 0.00,60.00,SummerDesignDay
708,23.999414063862507
748,23.997339618907767
788,23.99556452936974
2,1, 7,21, 0, 3, 0.00,60.00,SummerDesignDay
8,18.96499632356402
11,4736204188.044815
243,896619871.9163916
2,1, 7,21, 0, 3, 0.00,60.00,SummerDesignDay
708,23.99941729196348
748,23.997383284992507
788,23.99590367113961
2,1, 7,21, 0, 4, 0.00,60.00,SummerDesignDay
8,18.685989379882814
11,4713129792.07073
243,901640120.5073743
2,1, 7,21, 0, 4, 0.00,60.00,SummerDesignDay
708,23.99941933834789
748,23.997418468876807
788,23.99619721468685
2,1, 7,21, 0, 5, 0.00,60.00,SummerDesignDay
8,18.49999810986028
11,4699849541.745751
243,900139551.7523794
2,1, 7,21, 0, 5, 0.00,60.00,SummerDesignDay
708,23.999420247585637
748,23.997450925266596
788,23.996450448754815
2,1, 7,21, 0, 6, 0.00,60.00,SummerDesignDay
8,18.685989379882814
11,4659726271.9935469
243,898122696.7567883
2,1, 7,21, 0, 6, 0.00,60.00,SummerDesignDay
708,23.999370453094018
748,23.997455473483116
788,23.996495676613337
2,1, 7,21, 0, 7, 0.00,60.00,SummerDesignDay
8,19.336990356445314
11,4766650107.779126
243,903655136.1555458
2,1, 7,21, 0, 7, 0.00,60.00,SummerDesignDay
708,23.999232572051896
748,23.997372782011799
788,23.99624372981999
2,1, 7,21, 0, 8, 0.00,60.00,SummerDesignDay
8,20.917992548817627
11,4965743876.508523
243,910347608.1372571
2,1, 7,21, 0, 8, 0.00,60.00,SummerDesignDay
708,23.99907421197104
748,23.997254119840699
788,23.995875260712788
2,1, 7,21, 0, 9, 0.00,60.00,SummerDesignDay
8,22.420023807696297
11,5194618621.004762
243,918709163.9585877
2,1, 7,21, 0, 9, 0.00,60.00,SummerDesignDay
708,23.998992095575646
748,23.99711787544855
788,23.995024957032958
2,1, 7,21, 0,10, 0.00,60.00,SummerDesignDay
8,22.854695006230427
11,5344498512.5544409
243,928085081.3177395
2,1, 7,21, 0,10, 0.00,60.00,SummerDesignDay
708,23.999016070337718
748,23.99694717102945
788,23.99309177929315
2,1, 7,21, 0,11, 0.00,60.00,SummerDesignDay
8,23.232104587122938
11,5453025035.605119
243,936536295.384364
2,1, 7,21, 0,11, 0.00,60.00,SummerDesignDay
708,23.999148362881578
748,23.996897234643268
788,23.991361755629229
2,1, 7,21, 0,12, 0.00,60.00,SummerDesignDay
8,23.480593542408348
11,5499462581.394065
243,936377189.7691966
2,1, 7,21, 0,12, 0.00,60.00,SummerDesignDay
708,23.999330589487955
748,23.996953003187707
788,23.990299317401015
2,1, 7,21, 0,13, 0.00,60.00,SummerDesignDay
8,23.677626430315248
11,5526135469.528483
243,932696610.4990965
2,1, 7,21, 0,13, 0.00,60.00,SummerDesignDay
708,23.99945355480649
748,23.997017587297177
788,23.98950720641282
2,1, 7,21, 0,14, 0.00,60.00,SummerDesignDay
8,23.799986320868798
11,5566638809.354609
243,931138867.6726832
2,1, 7,21, 0,14, 0.00,60.00,SummerDesignDay
708,23.999431865214019
748,23.99702331048996
788,23.989087539161848
2,1, 7,21, 0,15, 0.00,60.00,SummerDesignDay
8,23.799986320868798
11,5567708086.683539
243,940627293.1326743
2,1, 7,21, 0,15, 0.00,60.00,SummerDesignDay
708,23.999348524556845
748,23.997011757569866
788,23.989102918562645
2,1, 7,21, 0,16, 0.00,60.00,SummerDesignDay
8,23.653081835774505
11,5533524589.512652
243,928044317.4926323
2,1, 7,21, 0,16, 0.00,60.00,SummerDesignDay
708,23.99931816182491
748,23.99702993617136
788,23.989683386689426
2,1, 7,21, 0,17, 0.00,60.00,SummerDesignDay
8,23.4558543827806
11,5479774743.8003849
243,923370232.1073823
2,1, 7,21, 0,17, 0.00,60.00,SummerDesignDay
708,23.99934627644672
748,23.997063543761319
788,23.99041443014775
2,1, 7,21, 0,18, 0.00,60.00,SummerDesignDay
8,23.207119318496696
11,5400453642.099437
243,912518993.6197594
2,1, 7,21, 0,18, 0.00,60.00,SummerDesignDay
708,23.999423882910159
748,23.997114760682444
788,23.99123845281444
2,1, 7,21, 0,19, 0.00,60.00,SummerDesignDay
8,22.82933132300861
11,5283352262.94639
243,897863957.2551137
2,1, 7,21, 0,19, 0.00,60.00,SummerDesignDay
708,23.99955908959526
748,23.99720917762128
788,23.992278914785595
2,1, 7,21, 0,20, 0.00,60.00,SummerDesignDay
8,22.548645905899027
11,5064247883.414563
243,906789775.2004312
2,1, 7,21, 0,20, 0.00,60.00,SummerDesignDay
708,23.99972314650962
748,23.997328769416116
788,23.99357672811929
2,1, 7,21, 0,21, 0.00,60.00,SummerDesignDay
8,22.312987690310977
11,5060225622.944013
243,903289314.1449109
2,1, 7,21, 0,21, 0.00,60.00,SummerDesignDay
708,23.99980636035626
748,23.99739926025145
788,23.994397862413054
2,1, 7,21, 0,22, 0.00,60.00,SummerDesignDay
8,21.475995587251039
11,4976550069.095784
243,898147790.4302932
2,1, 7,21, 0,22, 0.00,60.00,SummerDesignDay
708,23.999690995047894
748,23.99730292934813
788,23.994551207135879
2,1, 7,21, 0,23, 0.00,60.00,SummerDesignDay
8,20.824995071347869
11,4913057791.650085
243,903630048.4057926
2,1, 7,21, 0,23, 0.00,60.00,SummerDesignDay
708,23.999541554369665
748,23.997245090130176
788,23.994674901315578
2,1, 7,21, 0,24, 0.00,60.00,SummerDesignDay
8,20.173995840857065
11,4846535087.489085
243,894637895.7978369
2,1, 7,21, 0,24, 0.00,60.00,SummerDesignDay
708,23.99944998224898
748,23.997251559445993
788,23.994903587662316
3,1, 7,21, 0,SummerDesignDay
709,47.42014186644763,46.38676914598007,17,60,48.40398388717958, 5,60
749,46.8340694298316,46.54140179240748,16,60,47.08049346504103,22,60
789,59.48567796073137,58.21783237509085,15,60,61.62121269024077,22,60
4,1, 7
7,22.812875000000003,18.5,21, 5,60,27.8,21,14,60
1,BUFFALO NIAGARA INTL AP ANN HTG 99.6% CONDNS DB,  42.93, -78.73,  -5.00, 215.00
2,1, 1,21, 0, 1, 0.00,60.00,WinterDesignDay
8,-16.3
11,749192323.5729984
243,5967749847.80472
2,1, 1,21, 0, 1, 0.00,60.00,WinterDesignDay
708,21.00353518442979
748,20.977003914851353
788,21.002869386339858
2,1, 1,21, 0, 2, 0.00,60.00,WinterDesignDay
8,-16.3
11,749193642.2805923
243,5969240253.530712
2,1, 1,21, 0, 2, 0.00,60.00,WinterDesignDay
708,20.99906516504172
748,20.973360643441486
788,21.002869386479497
2,1, 1,21, 0, 3, 0.00,60.00,WinterDesignDay
8,-16.3
11,749242587.8115213
243,5976740535.991488
2,1, 1,21, 0, 3, 0.00,60.00,WinterDesignDay
708,21.00100606316606
748,20.97091312354669
788,21.00286938661167
2,1, 1,21, 0, 4, 0.00,60.00,WinterDesignDay
8,-16.3
11,753576768.9030012
243,5968007710.431797
2,1, 1,21, 0, 4, 0.00,60.00,WinterDesignDay
708,21.002912152260259
748,20.969208299936736
788,21.002869386717504
2,1, 1,21, 0, 5, 0.00,60.00,WinterDesignDay
8,-16.3
11,751364648.7833772
243,5973837887.770125
2,1, 1,21, 0, 5, 0.00,60.00,WinterDesignDay
708,21.00315710456304
748,20.967979340434228
788,21.00286938681457
2,1, 1,21, 0, 6, 0.00,60.00,WinterDesignDay
8,-16.3
11,749351233.2842368
243,5973387184.749862
2,1, 1,21, 0, 6, 0.00,60.00,WinterDesignDay
708,21.003083945309009
748,20.967011621937155
788,21.002869386910328
2,1, 1,21, 0, 7, 0.00,60.00,WinterDesignDay
8,-16.3
11,758242657.2812643
243,5968065992.774913
2,1, 1,21, 0, 7, 0.00,60.00,WinterDesignDay
708,21.003249584393854
748,20.966189959546595
788,21.002869387005185
2,1, 1,21, 0, 8, 0.00,60.00,WinterDesignDay
8,-16.3
11,761023663.0705937
243,5977252546.289431
2,1, 1,21, 0, 8, 0.00,60.00,WinterDesignDay
708,21.003464203254347
748,20.965459393329874
788,21.002869387097637
2,1, 1,21, 0, 9, 0.00,60.00,WinterDesignDay
8,-16.3
11,698837750.9873855
243,5975258743.933175
2,1, 1,21, 0, 9, 0.00,60.00,WinterDesignDay
708,20.99893660154983
748,20.96479238003326
788,21.002869387187759
2,1, 1,21, 0,10, 0.00,60.00,WinterDesignDay
8,-16.3
11,711321672.1683282
243,5995723704.857151
2,1, 1,21, 0,10, 0.00,60.00,WinterDesignDay
708,21.001099253581775
748,20.964173477989264
788,21.002869387274843
2,1, 1,21, 0,11, 0.00,60.00,WinterDesignDay
8,-16.3
11,727344089.2025012
243,6000109017.434625
2,1, 1,21, 0,11, 0.00,60.00,WinterDesignDay
708,21.0031818439067
748,20.963593792244397
788,21.00286938735881
2,1, 1,21, 0,12, 0.00,60.00,WinterDesignDay
8,-16.3
11,728459966.351281
243,5997544595.244402
2,1, 1,21, 0,12, 0.00,60.00,WinterDesignDay
708,21.003391728364407
748,20.963047813817974
788,21.002869387439277
2,1, 1,21, 0,13, 0.00,60.00,WinterDesignDay
8,-16.3
11,722703453.2927845
243,5996941812.509542
2,1, 1,21, 0,13, 0.00,60.00,WinterDesignDay
708,21.00324706800292
748,20.962531982436976
788,21.00286938751603
2,1, 1,21, 0,14, 0.00,60.00,WinterDesignDay
8,-16.3
11,729088904.7830305
243,5996965293.175037
2,1, 1,21, 0,14, 0.00,60.00,WinterDesignDay
708,21.00337895974561
748,20.962043736557239
788,21.002869387589486
2,1, 1,21, 0,15, 0.00,60.00,WinterDesignDay
8,-16.3
11,721693884.0515092
243,5998286051.44161
2,1, 1,21, 0,15, 0.00,60.00,WinterDesignDay
708,20.99891147273466
748,20.961581121496989
788,21.002869387659464
2,1, 1,21, 0,16, 0.00,60.00,WinterDesignDay
8,-16.3
11,727584640.7666776
243,6000230398.995629
2,1, 1,21, 0,16, 0.00,60.00,WinterDesignDay
708,21.001101933576267
748,20.96114251171486
788,21.002869387726518
2,1, 1,21, 0,17, 0.00,60.00,WinterDesignDay
8,-16.3
11,724262917.1802254
243,6000128827.241957
2,1, 1,21, 0,17, 0.00,60.00,WinterDesignDay
708,21.003177971886247
748,20.960726505131853
788,21.00286938779022
2,1, 1,21, 0,18, 0.00,60.00,WinterDesignDay
8,-16.3
11,788451243.3598125
243,5991426116.797998
2,1, 1,21, 0,18, 0.00,60.00,WinterDesignDay
708,21.003383214167838
748,20.960331837605439
788,21.002869387850585
2,1, 1,21, 0,19, 0.00,60.00,WinterDesignDay
8,-16.3
11,764567924.4357209
243,5987686887.246309
2,1, 1,21, 0,19, 0.00,60.00,WinterDesignDay
708,21.003240785025747
748,20.986794760798124
788,21.002869387908374
2,1, 1,21, 0,20, 0.00,60.00,WinterDesignDay
8,-16.3
11,758349157.5282254
243,5965356148.8778929
2,1, 1,21, 0,20, 0.00,60.00,WinterDesignDay
708,21.003416064003898
748,20.979045127098194
788,21.002869387975076
2,1, 1,21, 0,21, 0.00,60.00,WinterDesignDay
8,-16.3
11,758491753.3500933
243,5987810308.33734
2,1, 1,21, 0,21, 0.00,60.00,WinterDesignDay
708,20.998969173869694
748,20.996803174169249
788,21.002869388029248
2,1, 1,21, 0,22, 0.00,60.00,WinterDesignDay
8,-16.3
11,762761516.5641946
243,5968382546.290783
2,1, 1,21, 0,22, 0.00,60.00,WinterDesignDay
708,21.000774658246657
748,20.98499517733397
788,21.002869388091495
2,1, 1,21, 0,23, 0.00,60.00,WinterDesignDay
8,-16.3
11,760199244.2900238
243,5980720916.345402
2,1, 1,21, 0,23, 0.00,60.00,WinterDesignDay
708,21.002630182756798
748,21.00096346786997
788,21.00286938813848
2,1, 1,21, 0,24, 0.00,60.00,WinterDesignDay
8,-16.3
11,758200797.9829829
243,5976212665.006386
2,1, 1,21, 0,24, 0.00,60.00,WinterDesignDay
708,21.00313424270298
748,20.988126106401447
788,21.002869388190207
3,1, 1,21, 0,WinterDesignDay
709,5.889316378976542,5.888812779258283, 1,60,5.890486561297232,15,60
749,5.90039533562645,5.889743512773693,23,60,5.904474279244411,18,60
789,5.889053732219408,5.889053732219407,18,60,5.88905373221941, 1,60
4,1, 1
7,-16.300000000000009,-16.3,21, 1,60,-16.3,21, 1,60
End of Data
 Number of Records Written=         444
