Program Version,EnergyPlus, Version 9.1.0-08d2e308bb, YMD=2019.12.31 12:54
1,5,Environment Title[],Latitude[deg],Longitude[deg],Time Zone[],Elevation[m]
2,8,Day of Simulation[],Month[],Day of Month[],DST Indicator[1=yes 0=no],Hour[],StartMinute[],EndMinute[],DayType
3,5,Cumulative Day of Simulation[],Month[],Day of Month[],DST Indicator[1=yes 0=no],DayType  ! When Daily Report Variables Requested
4,2,Cumulative Days of Simulation[],Month[]  ! When Monthly Report Variables Requested
5,1,Cumulative Days of Simulation[] ! When Run Period Report Variables Requested
6,1,Calendar Year of Simulation[] ! When Annual Report Variables Requested
7,9,Environment,Site Outdoor Air Drybulb Temperature [C] !Monthly [Value,Min,Day,Hour,Minute,Max,Day,Hour,Minute]
8,1,Environment,Site Outdoor Air Wetbulb Temperature [C] !TimeStep
608,1,BUILDING STORY 1 THERMALZONE,Zone Air Temperature [C] !Hourly
609,7,BUILDING STORY 1 THERMALZONE,Zone Air Relative Humidity [%] !Daily [Value,Min,Hour,Minute,Max,Hour,Minute]
648,1,BUILDING STORY 2 THERMALZONE,Zone Air Temperature [C] !Hourly
649,7,BUILDING STORY 2 THERMALZONE,Zone Air Relative Humidity [%] !Daily [Value,Min,Hour,Minute,Max,Hour,Minute]
688,1,BUILDING STORY 3 THERMALZONE,Zone Air Temperature [C] !Hourly
689,7,BUILDING STORY 3 THERMALZONE,Zone Air Relative Humidity [%] !Daily [Value,Min,Hour,Minute,Max,Hour,Minute]
728,1,BUILDING STORY 4 THERMALZONE,Zone Air Temperature [C] !Hourly
729,7,BUILDING STORY 4 THERMALZONE,Zone Air Relative Humidity [%] !Daily [Value,Min,Hour,Minute,Max,Hour,Minute]
768,1,BUILDING STORY 5 THERMALZONE,Zone Air Temperature [C] !Hourly
769,7,BUILDING STORY 5 THERMALZONE,Zone Air Relative Humidity [%] !Daily [Value,Min,Hour,Minute,Max,Hour,Minute]
808,1,BUILDING STORY 6 THERMALZONE,Zone Air Temperature [C] !Hourly
809,7,BUILDING STORY 6 THERMALZONE,Zone Air Relative Humidity [%] !Daily [Value,Min,Hour,Minute,Max,Hour,Minute]
10,1,Electricity:Facility [J] !TimeStep
374,1,Gas:Facility [J] !TimeStep
End of Data Dictionary
1,BUFFALO NIAGARA INTL AP ANN CLG .4% CONDNS DB=>MWB,  42.93, -78.73,  -5.00, 215.00
2,1, 7,21, 0, 1, 0.00,60.00,SummerDesignDay
8,19.36840579326866
10,3233577679.2872989
374,0.0
2,1, 7,21, 0, 1, 0.00,60.00,SummerDesignDay
608,25.08211721035333
648,26.212243732224253
688,26.268386724345164
728,26.110577972118077
768,26.19419904736877
808,24.217578733693207
2,1, 7,21, 0, 2, 0.00,60.00,SummerDesignDay
8,19.25226217922265
10,3231025435.8310086
374,0.0
2,1, 7,21, 0, 2, 0.00,60.00,SummerDesignDay
608,25.215097164346227
648,26.358580621793636
688,26.502791615447817
728,26.396771941943415
768,26.334096209210398
808,24.07507350492579
2,1, 7,21, 0, 3, 0.00,60.00,SummerDesignDay
8,19.164819553782637
10,3228800526.0446879
374,0.0
2,1, 7,21, 0, 3, 0.00,60.00,SummerDesignDay
608,25.26262705623694
648,26.441145151739069
688,26.658393219270267
728,26.607194776851494
768,26.412056747539095
808,23.949342716785244
2,1, 7,21, 0, 4, 0.00,60.00,SummerDesignDay
8,19.0770792448193
10,3230130941.022092
374,0.0
2,1, 7,21, 0, 4, 0.00,60.00,SummerDesignDay
608,25.259454823430599
648,26.478024150949019
688,26.692541518282416
728,26.68422171359684
768,26.445506105382937
808,23.827757136795684
2,1, 7,21, 0, 5, 0.00,60.00,SummerDesignDay
8,19.018427637799467
10,3231564896.099788
374,0.0
2,1, 7,21, 0, 5, 0.00,60.00,SummerDesignDay
608,25.247463691851743
648,26.51206833840902
688,26.69792279228949
728,26.696451223628057
768,26.476773976614618
808,23.715872646243946
2,1, 7,21, 0, 6, 0.00,60.00,SummerDesignDay
8,19.0770792448193
10,3198043271.2211868
374,0.0
2,1, 7,21, 0, 6, 0.00,60.00,SummerDesignDay
608,25.37269385612062
648,25.744984406026185
688,25.76171643954604
728,25.762640099246668
768,25.742189470089465
808,23.762147097630327
2,1, 7,21, 0, 7, 0.00,60.00,SummerDesignDay
8,19.281346189070228
10,3380946017.10137
374,44936571.584307897
2,1, 7,21, 0, 7, 0.00,60.00,SummerDesignDay
608,25.016700420894069
648,25.053847635082606
688,25.05841287670105
728,25.059235458981037
768,25.053131070468788
808,24.42693311829339
2,1, 7,21, 0, 8, 0.00,60.00,SummerDesignDay
8,19.770887505670989
10,3704029073.456405
374,58769000.85535894
2,1, 7,21, 0, 8, 0.00,60.00,SummerDesignDay
608,24.08603711938668
648,24.099397785917778
688,24.103487401712429
728,24.104650945485408
768,24.098863451229414
808,24.026719521771555
2,1, 7,21, 0, 9, 0.00,60.00,SummerDesignDay
8,20.30732185289352
10,3696709322.498663
374,98925344.83289813
2,1, 7,21, 0, 9, 0.00,60.00,SummerDesignDay
608,23.998502240659716
648,24.00062996824202
688,24.00099338681324
728,24.001068507718217
768,24.0003668707657
808,23.99492761032569
2,1, 7,21, 0,10, 0.00,60.00,SummerDesignDay
8,20.778037156782458
10,3780590945.2870376
374,110543237.60523206
2,1, 7,21, 0,10, 0.00,60.00,SummerDesignDay
608,23.997516507439177
648,23.998316139373985
688,23.998554716315437
728,23.998579644221676
768,23.998055138738797
808,23.99388420523102
2,1, 7,21, 0,11, 0.00,60.00,SummerDesignDay
8,21.186337137460165
10,3798314738.260864
374,113436769.14637712
2,1, 7,21, 0,11, 0.00,60.00,SummerDesignDay
608,23.997442739016706
648,23.997699614178303
688,23.99776555338544
728,23.997769129586879
768,23.997437432179948
808,23.993732903960319
2,1, 7,21, 0,12, 0.00,60.00,SummerDesignDay
8,21.45495938709981
10,3800247683.30255
374,125249077.67696476
2,1, 7,21, 0,12, 0.00,60.00,SummerDesignDay
608,23.997702914045374
648,23.99763033809103
688,23.997593910936737
728,23.99757735964136
768,23.997363802615515
808,23.99380003856565
2,1, 7,21, 0,13, 0.00,60.00,SummerDesignDay
8,21.667839996742449
10,3809548045.7159769
374,154827400.06190823
2,1, 7,21, 0,13, 0.00,60.00,SummerDesignDay
608,23.997841176532665
648,23.99762127231695
688,23.99756708198847
728,23.997520376345969
768,23.99735478079098
808,23.99384550549667
2,1, 7,21, 0,14, 0.00,60.00,SummerDesignDay
8,21.799990419629109
10,3818942653.294627
374,150389919.17504777
2,1, 7,21, 0,14, 0.00,60.00,SummerDesignDay
608,23.997833470731885
648,23.997597872722534
688,23.99753626242518
728,23.997472769338608
768,23.997335470758139
808,23.993868864106117
2,1, 7,21, 0,15, 0.00,60.00,SummerDesignDay
8,21.799990419629109
10,3809529663.059974
374,101155851.50632027
2,1, 7,21, 0,15, 0.00,60.00,SummerDesignDay
608,23.997804201053925
648,23.99759375631996
688,23.9975204696518
728,23.997448648349903
768,23.997336409816375
808,23.99396002191714
2,1, 7,21, 0,16, 0.00,60.00,SummerDesignDay
8,21.641326796728476
10,3786788282.96118
374,96102407.81329674
2,1, 7,21, 0,16, 0.00,60.00,SummerDesignDay
608,23.99781399172009
648,23.99761844053677
688,23.99753823352238
728,23.997458873346237
768,23.997365987967897
808,23.994124776835954
2,1, 7,21, 0,17, 0.00,60.00,SummerDesignDay
8,21.42822317147698
10,3775831370.907975
374,122060520.53182452
2,1, 7,21, 0,17, 0.00,60.00,SummerDesignDay
608,23.997788990504394
648,23.997619731337737
688,23.997529372387129
728,23.997443748742954
768,23.997373151828076
808,23.994244874814894
2,1, 7,21, 0,18, 0.00,60.00,SummerDesignDay
8,21.15931786227956
10,3748575352.247556
374,76040313.71996103
2,1, 7,21, 0,18, 0.00,60.00,SummerDesignDay
608,23.997759681272016
648,23.99760645786464
688,23.9975065163986
728,23.99741989886231
768,23.997365901072368
808,23.99436881087816
2,1, 7,21, 0,19, 0.00,60.00,SummerDesignDay
8,20.750583661392644
10,3668990440.4960486
374,70669225.21847168
2,1, 7,21, 0,19, 0.00,60.00,SummerDesignDay
608,23.997892262581069
648,23.997673288616327
688,23.997596847244549
728,23.99751373146781
768,23.997437869482224
808,23.994670873145738
2,1, 7,21, 0,20, 0.00,60.00,SummerDesignDay
8,20.446661088459409
10,3552856153.5633785
374,50932961.175788749
2,1, 7,21, 0,20, 0.00,60.00,SummerDesignDay
608,23.998219461728814
648,23.99783342006072
688,23.997829892230393
728,23.997757258725949
768,23.997600467309469
808,23.995068297662056
2,1, 7,21, 0,21, 0.00,60.00,SummerDesignDay
8,20.19530361990708
10,3628620058.4492986
374,53167678.996513459
2,1, 7,21, 0,21, 0.00,60.00,SummerDesignDay
608,23.99832584274113
648,23.99791199628682
688,23.99793157160395
728,23.997862155301627
768,23.9976736576103
808,23.99514416150307
2,1, 7,21, 0,22, 0.00,60.00,SummerDesignDay
8,19.941485234887624
10,3597725982.051796
374,35495384.020737897
2,1, 7,21, 0,22, 0.00,60.00,SummerDesignDay
608,23.998115415213488
648,23.997823114552163
688,23.99779425080733
728,23.99773587564038
768,23.997585548772017
808,23.9950872577556
2,1, 7,21, 0,23, 0.00,60.00,SummerDesignDay
8,19.7423381019073
10,3247120125.075192
374,32252574.51162241
2,1, 7,21, 0,23, 0.00,60.00,SummerDesignDay
608,24.75607000498244
648,25.891241058486629
688,25.54817156804723
728,25.40963228644234
768,25.88686715215885
808,24.423188320864776
2,1, 7,21, 0,24, 0.00,60.00,SummerDesignDay
8,19.54165603023991
10,3244507951.748263
374,24917825.684232914
2,1, 7,21, 0,24, 0.00,60.00,SummerDesignDay
608,24.914529100580457
648,26.09251551362028
688,25.993174128173444
728,25.84370735751957
768,26.08100384971263
808,24.353303917291073
3,1, 7,21, 0,SummerDesignDay
609,48.64109792423784,44.70986730488388, 6,60,51.73509893134677,22,60
649,46.73414227680288,42.944414778150278, 5,60,49.34145156152542, 8,20
689,46.896375033069407,42.67164743913068, 5,60,50.00362686859938,22,60
729,47.166434137651119,42.82645698854191, 5,60,50.3180529650601,22,60
769,47.14982764561615,43.6681729761638, 5,60,49.73373420277084, 8,20
809,55.43718034239641,53.43238651599419,15,60,57.85010898037738, 5,60
4,1, 7
7,25.312875000000003,21.0,21, 5,60,30.3,21,14,60
1,BUFFALO NIAGARA INTL AP ANN CLG .4% CONDNS WB=>MDB,  42.93, -78.73,  -5.00, 215.00
2,1, 7,21, 0, 1, 0.00,60.00,SummerDesignDay
8,19.615996954992807
10,3245929731.7060139
374,0.0
2,1, 7,21, 0, 1, 0.00,60.00,SummerDesignDay
608,24.997674417346429
648,26.04709877445731
688,26.10195894845917
728,25.92810737486345
768,26.0011525905663
808,23.466229140189719
2,1, 7,21, 0, 2, 0.00,60.00,SummerDesignDay
8,19.243988037109376
10,3233991164.751228
374,0.0
2,1, 7,21, 0, 2, 0.00,60.00,SummerDesignDay
608,25.088760961029775
648,26.183328766776126
688,26.276624644546968
728,26.14370737598721
768,26.129244535075644
808,23.26496005271748
2,1, 7,21, 0, 3, 0.00,60.00,SummerDesignDay
8,18.96499632356402
10,3225077816.32599
374,0.0
2,1, 7,21, 0, 3, 0.00,60.00,SummerDesignDay
608,25.109701688023145
648,26.25138247454173
688,26.38791276664757
728,26.301672067548794
768,26.19209036518172
808,23.096477150758145
2,1, 7,21, 0, 4, 0.00,60.00,SummerDesignDay
8,18.685989379882814
10,3216702631.7767846
374,0.0
2,1, 7,21, 0, 4, 0.00,60.00,SummerDesignDay
608,25.10213731823303
648,26.279403819426379
688,26.48227833157062
728,26.43060328850297
768,26.21588373918706
808,22.932463131462354
2,1, 7,21, 0, 5, 0.00,60.00,SummerDesignDay
8,18.49999810986028
10,3210852515.2433664
374,0.0
2,1, 7,21, 0, 5, 0.00,60.00,SummerDesignDay
608,25.09063760436542
648,26.307732413661204
688,26.570930915645783
728,26.54728004400813
768,26.240508385661675
808,22.781886811429439
2,1, 7,21, 0, 6, 0.00,60.00,SummerDesignDay
8,18.685989379882814
10,3163374207.703287
374,0.0
2,1, 7,21, 0, 6, 0.00,60.00,SummerDesignDay
608,25.215555718376188
648,25.730821736757759
688,25.74983995261571
728,25.74869568983638
768,25.72630301625454
808,22.79419917128998
2,1, 7,21, 0, 7, 0.00,60.00,SummerDesignDay
8,19.336990356445314
10,3350742700.031792
374,44933677.95925268
2,1, 7,21, 0, 7, 0.00,60.00,SummerDesignDay
608,25.008544351119995
648,25.050820845805388
688,25.055242038726957
728,25.0556332933704
768,25.049655485924128
808,23.449524822200148
2,1, 7,21, 0, 8, 0.00,60.00,SummerDesignDay
8,20.917992548817627
10,3698398272.207012
374,58768828.31929715
2,1, 7,21, 0, 8, 0.00,60.00,SummerDesignDay
608,24.065865951402935
648,24.096027366830158
688,24.099921036475064
728,24.10078337503331
768,24.09489811036791
808,23.955282570417329
2,1, 7,21, 0, 9, 0.00,60.00,SummerDesignDay
8,22.420023807696297
10,3799191985.292054
374,98925193.52184643
2,1, 7,21, 0, 9, 0.00,60.00,SummerDesignDay
608,23.99825010182827
648,23.9999947726934
688,24.000284872777056
728,24.000286984189296
768,23.999543950588753
808,23.99172477191766
2,1, 7,21, 0,10, 0.00,60.00,SummerDesignDay
8,22.854695006230427
10,3915100256.2884986
374,110526347.21324913
2,1, 7,21, 0,10, 0.00,60.00,SummerDesignDay
608,23.997422218670719
648,23.997698054902913
688,23.997839729637208
728,23.99778406627164
768,23.997217063311188
808,23.990098987574475
2,1, 7,21, 0,11, 0.00,60.00,SummerDesignDay
8,23.232104587122938
10,3975148640.603073
374,113454202.97905752
2,1, 7,21, 0,11, 0.00,60.00,SummerDesignDay
608,23.99733756452597
648,23.997061452683878
688,23.997019955831715
728,23.996943175241794
768,23.996555513729093
808,23.989329881103815
2,1, 7,21, 0,12, 0.00,60.00,SummerDesignDay
8,23.480593542408348
10,3982258060.979995
374,125234134.87695445
2,1, 7,21, 0,12, 0.00,60.00,SummerDesignDay
608,23.99760122551262
648,23.996997941638818
688,23.99685656842857
728,23.99676022008694
768,23.99648371341156
808,23.98945945724849
2,1, 7,21, 0,13, 0.00,60.00,SummerDesignDay
8,23.677626430315248
10,3992089255.356787
374,154827286.67241854
2,1, 7,21, 0,13, 0.00,60.00,SummerDesignDay
608,23.997744615129745
648,23.997000875604507
688,23.99684323852197
728,23.99671964198728
768,23.996488877652206
808,23.98965466675213
2,1, 7,21, 0,14, 0.00,60.00,SummerDesignDay
8,23.799986320868798
10,4005324976.9553749
374,150389884.07199145
2,1, 7,21, 0,14, 0.00,60.00,SummerDesignDay
608,23.997742395977434
648,23.99698196118524
688,23.99681686734642
728,23.996677133976094
768,23.996474991596199
808,23.989730460072438
2,1, 7,21, 0,15, 0.00,60.00,SummerDesignDay
8,23.799986320868798
10,3994515680.536455
374,101155838.19650765
2,1, 7,21, 0,15, 0.00,60.00,SummerDesignDay
608,23.997716345218405
648,23.996980283238366
688,23.996804351870943
728,23.996656322061793
768,23.996478991172336
808,23.989885533974048
2,1, 7,21, 0,16, 0.00,60.00,SummerDesignDay
8,23.653081835774505
10,3959101292.4951269
374,96102264.22572847
2,1, 7,21, 0,16, 0.00,60.00,SummerDesignDay
608,23.99772555178811
648,23.997005466524937
688,23.996823239865305
728,23.99666758246854
768,23.996509939461029
808,23.9901548443741
2,1, 7,21, 0,17, 0.00,60.00,SummerDesignDay
8,23.4558543827806
10,3935165490.608368
374,122075064.55533186
2,1, 7,21, 0,17, 0.00,60.00,SummerDesignDay
608,23.997698140397078
648,23.99700376129479
688,23.996809454697027
728,23.99664666234358
768,23.996513653006429
808,23.990335210673366
2,1, 7,21, 0,18, 0.00,60.00,SummerDesignDay
8,23.207119318496696
10,3895218649.0896885
374,76040107.39493393
2,1, 7,21, 0,18, 0.00,60.00,SummerDesignDay
608,23.99767236173609
648,23.99699346264735
688,23.99679046792515
728,23.996626543556777
768,23.99650996178577
808,23.99055110877478
2,1, 7,21, 0,19, 0.00,60.00,SummerDesignDay
8,22.82933132300861
10,3792362243.316546
374,70669359.45732919
2,1, 7,21, 0,19, 0.00,60.00,SummerDesignDay
608,23.997812206351669
648,23.997071042313615
688,23.996899883790939
728,23.996742299156428
768,23.996596631649685
808,23.99109089079773
2,1, 7,21, 0,20, 0.00,60.00,SummerDesignDay
8,22.548645905899027
10,3654188204.660388
374,50898802.88140276
2,1, 7,21, 0,20, 0.00,60.00,SummerDesignDay
608,23.998144498616815
648,23.997243537414556
688,23.997160170631287
728,23.99701933407916
768,23.996776668389474
808,23.991775619759843
2,1, 7,21, 0,21, 0.00,60.00,SummerDesignDay
8,22.312987690310977
10,3715728515.434096
374,53202527.72180127
2,1, 7,21, 0,21, 0.00,60.00,SummerDesignDay
608,23.998226803592197
648,23.997303502681218
688,23.997236462500916
728,23.997098236381225
768,23.996827416375436
808,23.991878019525463
2,1, 7,21, 0,22, 0.00,60.00,SummerDesignDay
8,21.475995587251039
10,3640374347.627952
374,35431282.06386464
2,1, 7,21, 0,22, 0.00,60.00,SummerDesignDay
608,23.99799577027198
648,23.9971819708105
688,23.997053683173104
728,23.99692548723836
768,23.996702360485217
808,23.9918118771749
2,1, 7,21, 0,23, 0.00,60.00,SummerDesignDay
8,20.824995071347869
10,3292443168.8563449
374,32314395.84473966
2,1, 7,21, 0,23, 0.00,60.00,SummerDesignDay
608,24.687824154991185
648,25.771888365149019
688,25.43188321407574
728,25.288082059277934
768,25.74685845592896
808,23.904689776273345
2,1, 7,21, 0,24, 0.00,60.00,SummerDesignDay
8,20.173995840857065
10,3268948476.879289
374,24917790.448796635
2,1, 7,21, 0,24, 0.00,60.00,SummerDesignDay
608,24.852500919901045
648,25.947752709792679
688,25.826240893458324
728,25.666003690732337
768,25.911874729232414
808,23.705370789190469
3,1, 7,21, 0,SummerDesignDay
609,49.27895438402991,45.30358464639719, 6,60,52.44056943357279,22,60
649,47.86130185450589,43.767884082143449, 5,60,50.49666569571214,22,60
689,48.153230359258298,43.40022026905316, 5,60,51.39049135816194,22,60
729,48.53072293870469,43.64805641717282, 5,60,51.84175907336485,22,60
769,48.59198853135194,44.66139743871783, 5,60,51.1807600344205,22,60
809,62.23655636908949,60.17724793006418,15,60,64.6948162600014, 9,60
4,1, 7
7,22.812875000000003,18.5,21, 5,60,27.8,21,14,60
1,BUFFALO NIAGARA INTL AP ANN HTG 99.6% CONDNS DB,  42.93, -78.73,  -5.00, 215.00
2,1, 1,21, 0, 1, 0.00,60.00,WinterDesignDay
8,-16.3
10,841464053.8855895
374,3422221796.165107
2,1, 1,21, 0, 1, 0.00,60.00,WinterDesignDay
608,16.354562215194254
648,15.608403645092125
688,15.609962051481256
728,15.608596706088779
768,15.604728312571444
808,10.200294019467595
2,1, 1,21, 0, 2, 0.00,60.00,WinterDesignDay
8,-16.3
10,841634800.143437
374,3552986432.753726
2,1, 1,21, 0, 2, 0.00,60.00,WinterDesignDay
608,15.956158027411157
648,15.59972814205791
688,15.602886929179823
728,15.601348542301463
768,15.601057527144868
808,10.200287263626692
2,1, 1,21, 0, 3, 0.00,60.00,WinterDesignDay
8,-16.3
10,841776687.981758
374,3657971044.0526616
2,1, 1,21, 0, 3, 0.00,60.00,WinterDesignDay
608,15.614092321245014
648,15.599452258430923
688,15.599620158111018
728,15.597552974608647
768,15.601612021501192
808,10.200279677446055
2,1, 1,21, 0, 4, 0.00,60.00,WinterDesignDay
8,-16.3
10,841892596.9444397
374,3737234682.0401747
2,1, 1,21, 0, 4, 0.00,60.00,WinterDesignDay
608,15.600327235802954
648,15.599215895938688
688,15.599602133651903
728,15.598958355681573
768,15.602212070876857
808,10.200273519061101
2,1, 1,21, 0, 5, 0.00,60.00,WinterDesignDay
8,-16.3
10,841967338.2849709
374,3783923823.1481759
2,1, 1,21, 0, 5, 0.00,60.00,WinterDesignDay
608,15.600211138174706
648,15.60157111986716
688,15.598170271370489
728,15.601765686569495
768,15.600605429394314
808,10.200268124494741
2,1, 1,21, 0, 6, 0.00,60.00,WinterDesignDay
8,-16.3
10,844345739.700392
374,4775129594.901284
2,1, 1,21, 0, 6, 0.00,60.00,WinterDesignDay
608,17.428314095378999
648,17.493358996698903
688,17.453624930497349
728,17.43883649051739
768,17.481180580403416
808,10.200262962187159
2,1, 1,21, 0, 7, 0.00,60.00,WinterDesignDay
8,-16.3
10,853501240.8970811
374,5476247430.650509
2,1, 1,21, 0, 7, 0.00,60.00,WinterDesignDay
608,19.243948636206757
648,19.438031262390088
688,19.24371168883473
728,18.909595284023724
768,19.424296645181614
808,10.200257616314927
2,1, 1,21, 0, 8, 0.00,60.00,WinterDesignDay
8,-16.3
10,854960851.941043
374,5786103621.311941
2,1, 1,21, 0, 8, 0.00,60.00,WinterDesignDay
608,20.17921629650092
648,20.530744789192278
688,19.976688361891698
728,19.58750750975896
768,20.25448543484171
808,10.20025306482078
2,1, 1,21, 0, 9, 0.00,60.00,WinterDesignDay
8,-16.3
10,723714899.2601729
374,5771396089.510223
2,1, 1,21, 0, 9, 0.00,60.00,WinterDesignDay
608,20.77800044169348
648,20.675095579489868
688,20.47769081984562
728,20.119301725964104
768,20.40324515060727
808,10.20024875271081
2,1, 1,21, 0,10, 0.00,60.00,WinterDesignDay
8,-16.3
10,723541401.7250792
374,5752655581.732568
2,1, 1,21, 0,10, 0.00,60.00,WinterDesignDay
608,20.993918572639808
648,20.819168358504638
688,20.798736876362598
728,20.529427737202466
768,20.517344754467467
808,10.200244797639354
2,1, 1,21, 0,11, 0.00,60.00,WinterDesignDay
8,-16.3
10,723258643.211334
374,5699627377.708428
2,1, 1,21, 0,11, 0.00,60.00,WinterDesignDay
608,20.999137810648187
648,20.983224926673409
688,20.98696087954051
728,20.966215141060656
768,20.66077214503437
808,10.200240358120635
2,1, 1,21, 0,12, 0.00,60.00,WinterDesignDay
8,-16.3
10,722807813.8099272
374,5628166533.944937
2,1, 1,21, 0,12, 0.00,60.00,WinterDesignDay
608,21.00083193763455
648,20.999342722060569
688,20.99583187690037
728,21.00002765612835
768,20.73694153277811
808,10.200236727291572
2,1, 1,21, 0,13, 0.00,60.00,WinterDesignDay
8,-16.3
10,722626994.535196
374,5577467242.427769
2,1, 1,21, 0,13, 0.00,60.00,WinterDesignDay
608,21.000807782241809
648,20.994939150555909
688,21.000408554215519
728,21.002235048233076
768,20.801675645775739
808,10.200233539744185
2,1, 1,21, 0,14, 0.00,60.00,WinterDesignDay
8,-16.3
10,722418129.1963037
374,5532457862.943787
2,1, 1,21, 0,14, 0.00,60.00,WinterDesignDay
608,21.001471440067097
648,20.99867191601671
688,21.00090570549349
728,21.003356268273195
768,20.86654425427952
808,10.20023049739647
2,1, 1,21, 0,15, 0.00,60.00,WinterDesignDay
8,-16.3
10,722269361.5128136
374,5486311026.859951
2,1, 1,21, 0,15, 0.00,60.00,WinterDesignDay
608,21.00067583916923
648,21.001282291304354
688,21.001645714710109
728,21.00391004785074
768,20.93663012023684
808,10.20022757496167
2,1, 1,21, 0,16, 0.00,60.00,WinterDesignDay
8,-16.3
10,722129992.4678545
374,5455901987.711941
2,1, 1,21, 0,16, 0.00,60.00,WinterDesignDay
608,20.997506627857378
648,21.00122758497431
688,21.003568430142953
728,21.004146318261229
768,20.99072670177602
808,10.200224825807379
2,1, 1,21, 0,17, 0.00,60.00,WinterDesignDay
8,-16.3
10,721978195.5818362
374,5426839388.986363
2,1, 1,21, 0,17, 0.00,60.00,WinterDesignDay
608,20.996875187765626
648,21.002378351360304
688,20.995428696375489
728,21.005058685883
768,21.003708782888788
808,10.200222242044083
2,1, 1,21, 0,18, 0.00,60.00,WinterDesignDay
8,-16.3
10,852966399.2333293
374,5378778668.477368
2,1, 1,21, 0,18, 0.00,60.00,WinterDesignDay
608,20.997660394569995
648,20.999331762652337
688,21.00156802821158
728,21.001100132058327
768,21.000983957512394
808,10.200219826438583
2,1, 1,21, 0,19, 0.00,60.00,WinterDesignDay
8,-16.3
10,852844297.7926978
374,5361570152.809976
2,1, 1,21, 0,19, 0.00,60.00,WinterDesignDay
608,20.998496029872596
648,20.997775131204777
688,20.9993637373372
728,21.001320786633124
768,20.994680193605679
808,10.200217553912914
2,1, 1,21, 0,20, 0.00,60.00,WinterDesignDay
8,-16.3
10,852603711.423899
374,5304420430.634317
2,1, 1,21, 0,20, 0.00,60.00,WinterDesignDay
608,20.99917208213564
648,21.00213481865622
688,21.000334735491028
728,20.998019296634245
768,21.001104313844875
808,10.200215411915439
2,1, 1,21, 0,21, 0.00,60.00,WinterDesignDay
8,-16.3
10,852507336.611792
374,5283959387.226458
2,1, 1,21, 0,21, 0.00,60.00,WinterDesignDay
608,20.99975812093795
648,20.99559053814272
688,21.000205469614749
728,21.002997182697006
768,20.998777405211539
808,10.200213396749233
2,1, 1,21, 0,22, 0.00,60.00,WinterDesignDay
8,-16.3
10,852440406.3425381
374,5270554801.215676
2,1, 1,21, 0,22, 0.00,60.00,WinterDesignDay
608,21.000254449078779
648,20.998289880680394
688,21.000656845821206
728,21.00137737398174
768,21.005227033680545
808,10.200211526916342
2,1, 1,21, 0,23, 0.00,60.00,WinterDesignDay
8,-16.3
10,847678871.3810241
374,3043314178.2901957
2,1, 1,21, 0,23, 0.00,60.00,WinterDesignDay
608,18.42546545207389
648,16.919645757007939
688,17.2346356893336
728,17.176190225661036
768,16.673464421400856
808,10.200209749136299
2,1, 1,21, 0,24, 0.00,60.00,WinterDesignDay
8,-16.3
10,848065492.8584282
374,3206828642.3782708
2,1, 1,21, 0,24, 0.00,60.00,WinterDesignDay
608,17.10447704502409
648,15.839213370409123
688,15.856958583368055
728,15.820098491324256
768,15.745182926545932
808,10.200208002560018
3,1, 1,21, 0,WinterDesignDay
609,6.57788788764272,5.889559838600237,14,60,8.266613400397912, 5,60
649,6.651746773781234,5.889231519811974,17,60,8.267140748083034, 4,60
689,6.660998885087383,5.888800697381828,16,60,8.267694920752671, 5,60
729,6.685209781162421,5.888261183735226,17,60,8.26843211334162, 3,60
769,6.687379979078212,5.888200435842855,22,60,8.267101075669542,24,60
809,11.773236018723713,11.773191351669692, 1,20,11.773262326262945,24,40
4,1, 1
7,-16.300000000000009,-16.3,21, 1,60,-16.3,21, 1,60
End of Data
 Number of Records Written=         669
