Program Version,EnergyPlus, Version 9.1.0-08d2e308bb, YMD=2019.12.31 12:51
1,5,Environment Title[],Latitude[deg],Longitude[deg],Time Zone[],Elevation[m]
2,8,Day of Simulation[],Month[],Day of Month[],DST Indicator[1=yes 0=no],Hour[],StartMinute[],EndMinute[],DayType
3,5,Cumulative Day of Simulation[],Month[],Day of Month[],DST Indicator[1=yes 0=no],DayType  ! When Daily Report Variables Requested
4,2,Cumulative Days of Simulation[],Month[]  ! When Monthly Report Variables Requested
5,1,Cumulative Days of Simulation[] ! When Run Period Report Variables Requested
6,1,Calendar Year of Simulation[] ! When Annual Report Variables Requested
7,9,Environment,Site Outdoor Air Drybulb Temperature [C] !Monthly [Value,Min,Day,Hour,Minute,Max,Day,Hour,Minute]
8,1,Environment,Site Outdoor Air Wetbulb Temperature [C] !TimeStep
395,1,BUILDING STORY 1 THERMALZONE,Zone Air Temperature [C] !Hourly
396,7,BUILDING STORY 1 THERMALZONE,Zone Air Relative Humidity [%] !Daily [Value,Min,Hour,Minute,Max,Hour,Minute]
10,1,Electricity:Facility [J] !TimeStep
740,1,Gas:Facility [J] !TimeStep
End of Data Dictionary
1,BUFFALO NIAGARA INTL AP ANN CLG .4% CONDNS DB=>MWB,  42.93, -78.73,  -5.00, 215.00
2,1, 7,21, 0, 1, 0.00,60.00,SummerDesignDay
8,19.36840579326866
10,20615179.04472732
740,0.0
2,1, 7,21, 0, 1, 0.00,60.00,SummerDesignDay
395,24.40018132907295
2,1, 7,21, 0, 2, 0.00,60.00,SummerDesignDay
8,19.25226217922265
10,18878278.353930303
740,0.0
2,1, 7,21, 0, 2, 0.00,60.00,SummerDesignDay
395,24.400095710379149
2,1, 7,21, 0, 3, 0.00,60.00,SummerDesignDay
8,19.164819553782637
10,17808177.052829666
740,0.0
2,1, 7,21, 0, 3, 0.00,60.00,SummerDesignDay
395,24.40003250489951
2,1, 7,21, 0, 4, 0.00,60.00,SummerDesignDay
8,19.0770792448193
10,17531468.75299695
740,0.0
2,1, 7,21, 0, 4, 0.00,60.00,SummerDesignDay
395,24.348686887722939
2,1, 7,21, 0, 5, 0.00,60.00,SummerDesignDay
8,19.018427637799467
10,18369906.627141026
740,0.0
2,1, 7,21, 0, 5, 0.00,60.00,SummerDesignDay
395,24.29215104874382
2,1, 7,21, 0, 6, 0.00,60.00,SummerDesignDay
8,19.0770792448193
10,17472346.228243039
740,0.0
2,1, 7,21, 0, 6, 0.00,60.00,SummerDesignDay
395,24.36894758952328
2,1, 7,21, 0, 7, 0.00,60.00,SummerDesignDay
8,19.281346189070228
10,39322362.085651788
740,0.0
2,1, 7,21, 0, 7, 0.00,60.00,SummerDesignDay
395,24.38911616302767
2,1, 7,21, 0, 8, 0.00,60.00,SummerDesignDay
8,19.770887505670989
10,58917388.46628324
740,0.0
2,1, 7,21, 0, 8, 0.00,60.00,SummerDesignDay
395,24.394160403348427
2,1, 7,21, 0, 9, 0.00,60.00,SummerDesignDay
8,20.30732185289352
10,48269228.33273925
740,0.0
2,1, 7,21, 0, 9, 0.00,60.00,SummerDesignDay
395,24.394751022427113
2,1, 7,21, 0,10, 0.00,60.00,SummerDesignDay
8,20.778037156782458
10,50114004.776777427
740,0.0
2,1, 7,21, 0,10, 0.00,60.00,SummerDesignDay
395,24.39499837211225
2,1, 7,21, 0,11, 0.00,60.00,SummerDesignDay
8,21.186337137460165
10,51234779.62391155
740,0.0
2,1, 7,21, 0,11, 0.00,60.00,SummerDesignDay
395,24.39592508252059
2,1, 7,21, 0,12, 0.00,60.00,SummerDesignDay
8,21.45495938709981
10,50806329.71220025
740,0.0
2,1, 7,21, 0,12, 0.00,60.00,SummerDesignDay
395,24.397163869935907
2,1, 7,21, 0,13, 0.00,60.00,SummerDesignDay
8,21.667839996742449
10,50698126.23918913
740,0.0
2,1, 7,21, 0,13, 0.00,60.00,SummerDesignDay
395,24.397886754518536
2,1, 7,21, 0,14, 0.00,60.00,SummerDesignDay
8,21.799990419629109
10,37585560.5472076
740,0.0
2,1, 7,21, 0,14, 0.00,60.00,SummerDesignDay
395,24.39812268294878
2,1, 7,21, 0,15, 0.00,60.00,SummerDesignDay
8,21.799990419629109
10,50632576.643988799
740,0.0
2,1, 7,21, 0,15, 0.00,60.00,SummerDesignDay
395,24.39821478584963
2,1, 7,21, 0,16, 0.00,60.00,SummerDesignDay
8,21.641326796728476
10,51697456.65680889
740,0.0
2,1, 7,21, 0,16, 0.00,60.00,SummerDesignDay
395,24.398181386390367
2,1, 7,21, 0,17, 0.00,60.00,SummerDesignDay
8,21.42822317147698
10,42656243.63116853
740,0.0
2,1, 7,21, 0,17, 0.00,60.00,SummerDesignDay
395,24.397808284086449
2,1, 7,21, 0,18, 0.00,60.00,SummerDesignDay
8,21.15931786227956
10,61112128.80476053
740,0.0
2,1, 7,21, 0,18, 0.00,60.00,SummerDesignDay
395,24.397450091043529
2,1, 7,21, 0,19, 0.00,60.00,SummerDesignDay
8,20.750583661392644
10,73859654.33810018
740,0.0
2,1, 7,21, 0,19, 0.00,60.00,SummerDesignDay
395,24.398032325735838
2,1, 7,21, 0,20, 0.00,60.00,SummerDesignDay
8,20.446661088459409
10,53754465.890637148
740,0.0
2,1, 7,21, 0,20, 0.00,60.00,SummerDesignDay
395,24.39945801704731
2,1, 7,21, 0,21, 0.00,60.00,SummerDesignDay
8,20.19530361990708
10,57920164.528334278
740,0.0
2,1, 7,21, 0,21, 0.00,60.00,SummerDesignDay
395,24.400030730415037
2,1, 7,21, 0,22, 0.00,60.00,SummerDesignDay
8,19.941485234887624
10,53128695.171228598
740,0.0
2,1, 7,21, 0,22, 0.00,60.00,SummerDesignDay
395,24.40018307138374
2,1, 7,21, 0,23, 0.00,60.00,SummerDesignDay
8,19.7423381019073
10,33480007.111296644
740,0.0
2,1, 7,21, 0,23, 0.00,60.00,SummerDesignDay
395,24.400253019241668
2,1, 7,21, 0,24, 0.00,60.00,SummerDesignDay
8,19.54165603023991
10,41095404.54292644
740,0.0
2,1, 7,21, 0,24, 0.00,60.00,SummerDesignDay
395,24.400254517058064
3,1, 7,21, 0,SummerDesignDay
396,56.56255345159865,50.502261213737558,18,60,65.99111154602508, 6,60
4,1, 7
7,25.312875000000003,21.0,21, 5,60,30.3,21,14,60
1,BUFFALO NIAGARA INTL AP ANN CLG .4% CONDNS WB=>MDB,  42.93, -78.73,  -5.00, 215.00
2,1, 7,21, 0, 1, 0.00,60.00,SummerDesignDay
8,19.615996954992807
10,18730680.25152688
740,0.0
2,1, 7,21, 0, 1, 0.00,60.00,SummerDesignDay
395,24.23009410687105
2,1, 7,21, 0, 2, 0.00,60.00,SummerDesignDay
8,19.243988037109376
10,18045416.538081208
740,0.0
2,1, 7,21, 0, 2, 0.00,60.00,SummerDesignDay
395,23.98887072805395
2,1, 7,21, 0, 3, 0.00,60.00,SummerDesignDay
8,18.96499632356402
10,17702784.681357016
740,0.0
2,1, 7,21, 0, 3, 0.00,60.00,SummerDesignDay
395,23.766279902288795
2,1, 7,21, 0, 4, 0.00,60.00,SummerDesignDay
8,18.685989379882814
10,17531468.75299695
740,0.0
2,1, 7,21, 0, 4, 0.00,60.00,SummerDesignDay
395,23.57268658032354
2,1, 7,21, 0, 5, 0.00,60.00,SummerDesignDay
8,18.49999810986028
10,18369906.627141026
740,0.0
2,1, 7,21, 0, 5, 0.00,60.00,SummerDesignDay
395,23.43142783467601
2,1, 7,21, 0, 6, 0.00,60.00,SummerDesignDay
8,18.685989379882814
10,15612232.072589128
740,0.0
2,1, 7,21, 0, 6, 0.00,60.00,SummerDesignDay
395,23.635880158973703
2,1, 7,21, 0, 7, 0.00,60.00,SummerDesignDay
8,19.336990356445314
10,34610549.902472939
740,0.0
2,1, 7,21, 0, 7, 0.00,60.00,SummerDesignDay
395,24.238304634496186
2,1, 7,21, 0, 8, 0.00,60.00,SummerDesignDay
8,20.917992548817627
10,56819204.62655735
740,0.0
2,1, 7,21, 0, 8, 0.00,60.00,SummerDesignDay
395,24.375970100114985
2,1, 7,21, 0, 9, 0.00,60.00,SummerDesignDay
8,22.420023807696297
10,47665792.59874249
740,0.0
2,1, 7,21, 0, 9, 0.00,60.00,SummerDesignDay
395,24.390147773404725
2,1, 7,21, 0,10, 0.00,60.00,SummerDesignDay
8,22.854695006230427
10,50041481.32431563
740,0.0
2,1, 7,21, 0,10, 0.00,60.00,SummerDesignDay
395,24.393148287801549
2,1, 7,21, 0,11, 0.00,60.00,SummerDesignDay
8,23.232104587122938
10,51325072.24416531
740,0.0
2,1, 7,21, 0,11, 0.00,60.00,SummerDesignDay
395,24.394445064891685
2,1, 7,21, 0,12, 0.00,60.00,SummerDesignDay
8,23.480593542408348
10,50682852.564851749
740,0.0
2,1, 7,21, 0,12, 0.00,60.00,SummerDesignDay
395,24.39600393263671
2,1, 7,21, 0,13, 0.00,60.00,SummerDesignDay
8,23.677626430315248
10,50484532.61108311
740,0.0
2,1, 7,21, 0,13, 0.00,60.00,SummerDesignDay
395,24.396866436159596
2,1, 7,21, 0,14, 0.00,60.00,SummerDesignDay
8,23.799986320868798
10,37391721.75108763
740,0.0
2,1, 7,21, 0,14, 0.00,60.00,SummerDesignDay
395,24.397055738538908
2,1, 7,21, 0,15, 0.00,60.00,SummerDesignDay
8,23.799986320868798
10,50420007.28521525
740,0.0
2,1, 7,21, 0,15, 0.00,60.00,SummerDesignDay
395,24.397161931019324
2,1, 7,21, 0,16, 0.00,60.00,SummerDesignDay
8,23.653081835774505
10,51466589.27555662
740,0.0
2,1, 7,21, 0,16, 0.00,60.00,SummerDesignDay
395,24.397194657684986
2,1, 7,21, 0,17, 0.00,60.00,SummerDesignDay
8,23.4558543827806
10,42541359.9922033
740,0.0
2,1, 7,21, 0,17, 0.00,60.00,SummerDesignDay
395,24.39667327883912
2,1, 7,21, 0,18, 0.00,60.00,SummerDesignDay
8,23.207119318496696
10,61073362.28136796
740,0.0
2,1, 7,21, 0,18, 0.00,60.00,SummerDesignDay
395,24.3962059554507
2,1, 7,21, 0,19, 0.00,60.00,SummerDesignDay
8,22.82933132300861
10,73499805.42754749
740,0.0
2,1, 7,21, 0,19, 0.00,60.00,SummerDesignDay
395,24.39738371853333
2,1, 7,21, 0,20, 0.00,60.00,SummerDesignDay
8,22.548645905899027
10,52688685.318220939
740,0.0
2,1, 7,21, 0,20, 0.00,60.00,SummerDesignDay
395,24.399609775761495
2,1, 7,21, 0,21, 0.00,60.00,SummerDesignDay
8,22.312987690310977
10,56608350.42495041
740,0.0
2,1, 7,21, 0,21, 0.00,60.00,SummerDesignDay
395,24.40036843138989
2,1, 7,21, 0,22, 0.00,60.00,SummerDesignDay
8,21.475995587251039
10,51613668.68928212
740,0.0
2,1, 7,21, 0,22, 0.00,60.00,SummerDesignDay
395,24.400356462463173
2,1, 7,21, 0,23, 0.00,60.00,SummerDesignDay
8,20.824995071347869
10,31654534.465793544
740,0.0
2,1, 7,21, 0,23, 0.00,60.00,SummerDesignDay
395,24.40025152022229
2,1, 7,21, 0,24, 0.00,60.00,SummerDesignDay
8,20.173995840857065
10,38180726.682398568
740,0.0
2,1, 7,21, 0,24, 0.00,60.00,SummerDesignDay
395,24.40010643998467
3,1, 7,21, 0,SummerDesignDay
396,65.485228551594,56.78200889655213,18,60,76.69303973911289, 5,60
4,1, 7
7,22.812875000000003,18.5,21, 5,60,27.8,21,14,60
1,BUFFALO NIAGARA INTL AP ANN HTG 99.6% CONDNS DB,  42.93, -78.73,  -5.00, 215.00
2,1, 1,21, 0, 1, 0.00,60.00,WinterDesignDay
8,-16.3
10,18031459.846396954
740,139411142.32935254
2,1, 1,21, 0, 1, 0.00,60.00,WinterDesignDay
395,21.703502124976589
2,1, 1,21, 0, 2, 0.00,60.00,WinterDesignDay
8,-16.3
10,17350715.477896144
740,140336474.17574132
2,1, 1,21, 0, 2, 0.00,60.00,WinterDesignDay
395,21.703692055794187
2,1, 1,21, 0, 3, 0.00,60.00,WinterDesignDay
8,-16.3
10,17010151.17217652
740,140773597.14657635
2,1, 1,21, 0, 3, 0.00,60.00,WinterDesignDay
395,21.703766998761897
2,1, 1,21, 0, 4, 0.00,60.00,WinterDesignDay
8,-16.3
10,16839870.523989466
740,140994559.22160629
2,1, 1,21, 0, 4, 0.00,60.00,WinterDesignDay
395,21.703804240917728
2,1, 1,21, 0, 5, 0.00,60.00,WinterDesignDay
8,-16.3
10,17676350.111388644
740,140500356.54086033
2,1, 1,21, 0, 5, 0.00,60.00,WinterDesignDay
395,21.703797362348188
2,1, 1,21, 0, 6, 0.00,60.00,WinterDesignDay
8,-16.3
10,19992514.64341126
740,138619361.967477
2,1, 1,21, 0, 6, 0.00,60.00,WinterDesignDay
395,21.703644348422839
2,1, 1,21, 0, 7, 0.00,60.00,WinterDesignDay
8,-16.3
10,53747509.49083984
740,136434477.6050487
2,1, 1,21, 0, 7, 0.00,60.00,WinterDesignDay
395,21.703401172458073
2,1, 1,21, 0, 8, 0.00,60.00,WinterDesignDay
8,-16.3
10,41399183.90472403
740,135571670.27743627
2,1, 1,21, 0, 8, 0.00,60.00,WinterDesignDay
395,21.703265161121693
2,1, 1,21, 0, 9, 0.00,60.00,WinterDesignDay
8,-16.3
10,45893642.25042562
740,139054607.38569898
2,1, 1,21, 0, 9, 0.00,60.00,WinterDesignDay
395,21.703566357446353
2,1, 1,21, 0,10, 0.00,60.00,WinterDesignDay
8,-16.3
10,31225044.910440133
740,140182667.07445795
2,1, 1,21, 0,10, 0.00,60.00,WinterDesignDay
395,21.70372039112549
2,1, 1,21, 0,11, 0.00,60.00,WinterDesignDay
8,-16.3
10,45318322.90145629
740,139961376.6839552
2,1, 1,21, 0,11, 0.00,60.00,WinterDesignDay
395,21.703702128291668
2,1, 1,21, 0,12, 0.00,60.00,WinterDesignDay
8,-16.3
10,31253605.87761907
740,139827088.52691058
2,1, 1,21, 0,12, 0.00,60.00,WinterDesignDay
395,21.703648139753068
2,1, 1,21, 0,13, 0.00,60.00,WinterDesignDay
8,-16.3
10,30923966.723117025
740,139959528.85369725
2,1, 1,21, 0,13, 0.00,60.00,WinterDesignDay
395,21.703620087341795
2,1, 1,21, 0,14, 0.00,60.00,WinterDesignDay
8,-16.3
10,16971930.60558853
740,140436479.44049765
2,1, 1,21, 0,14, 0.00,60.00,WinterDesignDay
395,21.703613783213759
2,1, 1,21, 0,15, 0.00,60.00,WinterDesignDay
8,-16.3
10,30017925.936514673
740,140625450.14624224
2,1, 1,21, 0,15, 0.00,60.00,WinterDesignDay
395,21.703602026642625
2,1, 1,21, 0,16, 0.00,60.00,WinterDesignDay
8,-16.3
10,31269199.675520254
740,139770961.81965456
2,1, 1,21, 0,16, 0.00,60.00,WinterDesignDay
395,21.703535899717619
2,1, 1,21, 0,17, 0.00,60.00,WinterDesignDay
8,-16.3
10,34933321.491845417
740,136421807.4845877
2,1, 1,21, 0,17, 0.00,60.00,WinterDesignDay
395,21.70318323842339
2,1, 1,21, 0,18, 0.00,60.00,WinterDesignDay
8,-16.3
10,48097673.48668795
740,130676177.81488638
2,1, 1,21, 0,18, 0.00,60.00,WinterDesignDay
395,21.702571083938805
2,1, 1,21, 0,19, 0.00,60.00,WinterDesignDay
8,-16.3
10,55380299.930833827
740,127126386.05440362
2,1, 1,21, 0,19, 0.00,60.00,WinterDesignDay
395,21.702105442662597
2,1, 1,21, 0,20, 0.00,60.00,WinterDesignDay
8,-16.3
10,58119181.897754069
740,127267221.547255
2,1, 1,21, 0,20, 0.00,60.00,WinterDesignDay
395,21.702027416623996
2,1, 1,21, 0,21, 0.00,60.00,WinterDesignDay
8,-16.3
10,48757638.69824597
740,127705744.62594237
2,1, 1,21, 0,21, 0.00,60.00,WinterDesignDay
395,21.70207372097299
2,1, 1,21, 0,22, 0.00,60.00,WinterDesignDay
8,-16.3
10,45695507.332834098
740,128938736.12091014
2,1, 1,21, 0,22, 0.00,60.00,WinterDesignDay
395,21.70221367431026
2,1, 1,21, 0,23, 0.00,60.00,WinterDesignDay
8,-16.3
10,41056431.60338766
740,132943822.57846809
2,1, 1,21, 0,23, 0.00,60.00,WinterDesignDay
395,21.702648350952115
2,1, 1,21, 0,24, 0.00,60.00,WinterDesignDay
8,-16.3
10,36918815.43047453
740,136496816.48652733
2,1, 1,21, 0,24, 0.00,60.00,WinterDesignDay
395,21.70309372384921
3,1, 1,21, 0,WinterDesignDay
396,7.225254971615409,6.535244687022638,17,60,7.819890404977274, 7,60
4,1, 1
7,-16.300000000000009,-16.3,21, 1,60,-16.3,21, 1,60
End of Data
 Number of Records Written=         294
